       N       E                     dE             d eps       ncg     rms          rms(c)
DAV:   1     0.927271414887E+03    0.92727E+03   -0.54052E+04 30576   0.175E+03
DAV:   2     0.720310094873E+00   -0.92655E+03   -0.89641E+03 30576   0.399E+02
DAV:   3    -0.921753386274E+02   -0.92896E+02   -0.88231E+02 31968   0.148E+02
DAV:   4    -0.956984465810E+02   -0.35231E+01   -0.34608E+01 36028   0.280E+01
DAV:   5    -0.957900236653E+02   -0.91577E-01   -0.91366E-01 36912   0.392E+00    0.341E+01
RMM:   6    -0.103762206503E+03   -0.79722E+01   -0.42791E+02 30626   0.123E+02    0.253E+01
RMM:   7    -0.790439876115E+02    0.24718E+02   -0.92075E+01 30576   0.616E+01    0.286E+00
RMM:   8    -0.790967042211E+02   -0.52717E-01   -0.94601E+00 30576   0.159E+01    0.462E+00
RMM:   9    -0.786651832614E+02    0.43152E+00   -0.98676E-01 30577   0.629E+00    0.575E-01
RMM:  10    -0.786590986259E+02    0.60846E-02   -0.32150E-02 30580   0.763E-01    0.324E-01
RMM:  11    -0.786564468797E+02    0.26517E-02   -0.18575E-02 30576   0.584E-01    0.720E-02
RMM:  12    -0.786564221874E+02    0.24692E-04   -0.51211E-04 30581   0.926E-02    0.460E-02
RMM:  13    -0.786564067628E+02    0.15425E-04   -0.16417E-04 30573   0.687E-02    0.230E-02
RMM:  14    -0.786563933738E+02    0.13389E-04   -0.28407E-05 18904   0.331E-02    0.631E-03
RMM:  15    -0.786563932989E+02    0.74882E-07   -0.49220E-06 17192   0.112E-02
   1 F= -.78656393E+02 E0= -.78651284E+02  d E =-.786564E+02
       N       E                     dE             d eps       ncg     rms          rms(c)
DAV:   1    -0.786566362748E+02   -0.24290E-03   -0.50217E-03 32964   0.269E-01    0.791E-03
RMM:   2    -0.786566448071E+02   -0.85324E-05   -0.94942E-05 29442   0.600E-02    0.112E-02
RMM:   3    -0.786566416792E+02    0.31280E-05   -0.24284E-05 16762   0.281E-02    0.514E-03
RMM:   4    -0.786566419968E+02   -0.31763E-06   -0.47576E-06 16060   0.163E-02
   2 F= -.78656642E+02 E0= -.78651539E+02  d E =-.248698E-03
       N       E                     dE             d eps       ncg     rms          rms(c)
DAV:   1    -0.786570495148E+02   -0.40784E-03   -0.45331E-02 31652   0.806E-01    0.244E-02
RMM:   2    -0.786570915609E+02   -0.42046E-04   -0.66990E-04 30576   0.148E-01    0.987E-03
RMM:   3    -0.786570909319E+02    0.62904E-06   -0.30155E-05 19946   0.274E-02    0.190E-03
RMM:   4    -0.786570913481E+02   -0.41618E-06   -0.53408E-06 16590   0.112E-02
   3 F= -.78657091E+02 E0= -.78652005E+02  d E =-.698049E-03
       N       E                     dE             d eps       ncg     rms          rms(c)
DAV:   1    -0.786571336698E+02   -0.42738E-04   -0.87242E-03 32040   0.354E-01    0.109E-02
RMM:   2    -0.786571424889E+02   -0.88191E-05   -0.13191E-04 29457   0.661E-02    0.387E-03
RMM:   3    -0.786571426626E+02   -0.17369E-06   -0.59724E-06 16394   0.132E-02    0.480E-04
RMM:   4    -0.786571428046E+02   -0.14198E-06   -0.16775E-06 15892   0.759E-03
   4 F= -.78657143E+02 E0= -.78652064E+02  d E =-.749506E-03
       N       E                     dE             d eps       ncg     rms          rms(c)
DAV:   1    -0.786571798678E+02   -0.37205E-04   -0.10494E-02 31432   0.371E-01    0.951E-03
RMM:   2    -0.786571828330E+02   -0.29652E-05   -0.35215E-05 20241   0.373E-02    0.124E-02
RMM:   3    -0.786571824396E+02    0.39344E-06   -0.83306E-06 15645   0.145E-02    0.143E-02
RMM:   4    -0.786571797989E+02    0.26407E-05   -0.48679E-06 15541   0.151E-02
   5 F= -.78657180E+02 E0= -.78652104E+02  d E =-.369942E-04
       N       E                     dE             d eps       ncg     rms          rms(c)
DAV:   1    -0.786572050203E+02   -0.22581E-04   -0.23730E-02 31000   0.559E-01    0.145E-02
RMM:   2    -0.786572050279E+02   -0.76482E-08   -0.49761E-05 24869   0.459E-02    0.124E-02
RMM:   3    -0.786572040475E+02    0.98042E-06   -0.33441E-06 15717   0.104E-02    0.100E-02
RMM:   4    -0.786572022374E+02    0.18101E-05   -0.26046E-06 15554   0.985E-03
   6 F= -.78657202E+02 E0= -.78652131E+02  d E =-.594328E-04
       N       E                     dE             d eps       ncg     rms          rms(c)
DAV:   1    -0.786572022687E+02    0.17788E-05   -0.11599E-04 31692   0.391E-02    0.425E-03
RMM:   2    -0.786572022047E+02    0.64047E-07   -0.21653E-07 11960   0.336E-03    0.362E-03
RMM:   3    -0.786572020383E+02    0.16637E-06   -0.36475E-08  2955   0.202E-03    0.316E-03
RMM:   4    -0.786572017606E+02    0.27776E-06   -0.82382E-07 13783   0.545E-03
   7 F= -.78657202E+02 E0= -.78652130E+02  d E =-.589560E-04
       N       E                     dE             d eps       ncg     rms          rms(c)
DAV:   1    -0.786571958192E+02    0.62191E-05   -0.28190E-03 30932   0.195E-01    0.480E-03
RMM:   2    -0.786571962567E+02   -0.43744E-06   -0.10160E-05 15423   0.208E-02    0.646E-03
RMM:   3    -0.786571960888E+02    0.16782E-06   -0.41128E-06 15353   0.119E-02    0.295E-03
RMM:   4    -0.786571958490E+02    0.23984E-06   -0.88114E-07 15273   0.555E-03
   8 F= -.78657196E+02 E0= -.78652126E+02  d E =0.591158E-05
       N       E                     dE             d eps       ncg     rms          rms(c)
DAV:   1    -0.786571984671E+02   -0.23782E-05   -0.18876E-03 30980   0.160E-01    0.433E-03
RMM:   2    -0.786571984947E+02   -0.27604E-07   -0.54216E-06 15479   0.155E-02    0.389E-03
RMM:   3    -0.786571984001E+02    0.94595E-07   -0.90457E-07 15336   0.573E-03    0.221E-03
RMM:   4    -0.786571983947E+02    0.54098E-08   -0.66311E-08  4984   0.240E-03
   9 F= -.78657198E+02 E0= -.78652130E+02  d E =0.336589E-05
       N       E                     dE             d eps       ncg     rms          rms(c)
DAV:   1    -0.786572002273E+02   -0.18272E-05   -0.71508E-04 31160   0.983E-02    0.236E-03
RMM:   2    -0.786572008534E+02   -0.62613E-06   -0.23178E-06 15360   0.954E-03    0.481E-03
RMM:   3    -0.786572002476E+02    0.60576E-06   -0.19344E-06 15311   0.970E-03    0.747E-04
RMM:   4    -0.786572002790E+02   -0.31348E-07   -0.26190E-07  9514   0.297E-03
  10 F= -.78657200E+02 E0= -.78652132E+02  d E =-.188430E-05
       N       E                     dE             d eps       ncg     rms          rms(c)
DAV:   1    -0.786572026930E+02   -0.24454E-05   -0.40229E-03 30748   0.233E-01    0.554E-03
RMM:   2    -0.786572022530E+02    0.44005E-06   -0.68499E-06 15413   0.181E-02    0.131E-03
RMM:   3    -0.786572023473E+02   -0.94334E-07   -0.89543E-07 15321   0.533E-03    0.401E-04
RMM:   4    -0.786572023395E+02    0.78694E-08   -0.85618E-08  6178   0.253E-03
  11 F= -.78657202E+02 E0= -.78652135E+02  d E =-.394478E-05
       N       E                     dE             d eps       ncg     rms          rms(c)
DAV:   1    -0.786572029913E+02   -0.64402E-06   -0.67398E-04 31184   0.956E-02    0.229E-03
RMM:   2    -0.786572037828E+02   -0.79147E-06   -0.40193E-06 15346   0.129E-02    0.602E-03
RMM:   3    -0.786572030598E+02    0.72306E-06   -0.56032E-06 15314   0.164E-02    0.189E-03
RMM:   4    -0.786572030672E+02   -0.74513E-08   -0.10176E-08  2750   0.214E-03
  12 F= -.78657203E+02 E0= -.78652137E+02  d E =-.727748E-06
