AlCu                                    
           1
    12.119773    0.000000    0.008654
     0.000000    4.104732    0.000000
    -3.973711    0.000000    5.741707
   Al   Cu
  10  10
Direct configuration=     1
   0.50000000  0.00000000  0.50000000
   0.15587366  0.00000000  0.46137374
   0.84412632  0.00000000  0.53862623
   0.87805559  0.50000000  0.99541334
   0.12194440  0.50000000  0.00458663
   0.00000000  0.50000000  0.50000000
   0.65587368  0.50000000  0.46137374
   0.34412635  0.50000000  0.53862623
   0.37805559  0.00000000  0.99541334
   0.62194441  0.00000000  0.00458663
   0.00000000  0.00000000  0.00000000
   0.25805145  0.00000000  0.24172886
   0.74194852  0.00000000  0.75827112
   0.10866387  0.00000000  0.77167894
   0.89133614  0.00000000  0.22832103
   0.50000000  0.50000000  0.00000000
   0.75805148  0.50000000  0.24172886
   0.24194855  0.50000000  0.75827112
   0.60866386  0.50000000  0.77167894
   0.39133614  0.50000000  0.22832103
Direct configuration=     2
   0.50000000  0.00000000  0.50000000
   0.15583023  0.00000000  0.46136949
   0.84416976  0.00000000  0.53863048
   0.87797155  0.50000000  0.99545939
   0.12202845  0.50000000  0.00454058
   0.00000000  0.50000000  0.50000000
   0.65583024  0.50000000  0.46136949
   0.34416979  0.50000000  0.53863048
   0.37797155 -0.00000000  0.99545939
   0.62202845  0.00000000  0.00454058
   0.00000000  0.00000000  0.00000000
   0.25805203  0.00000000  0.24172775
   0.74194794 -0.00000000  0.75827223
   0.10867601 -0.00000000  0.77175232
   0.89132400  0.00000000  0.22824765
   0.50000000  0.50000000  0.00000000
   0.75805206  0.50000000  0.24172775
   0.24194797  0.50000000  0.75827223
   0.60867600  0.50000000  0.77175232
   0.39132400  0.50000000  0.22824765
Direct configuration=     3
   0.50000000  0.00000000  0.50000000
   0.15569994  0.00000000  0.46135675
   0.84430005  0.00000000  0.53864323
   0.87771941  0.50000000  0.99559754
   0.12228058  0.50000000  0.00440243
   0.00000000  0.50000000  0.50000000
   0.65569995  0.50000000  0.46135675
   0.34430008  0.50000000  0.53864323
   0.37771941 -0.00000000  0.99559754
   0.62228059  0.00000000  0.00440243
   0.00000000  0.00000000  0.00000000
   0.25805377  0.00000000  0.24172441
   0.74194620 -0.00000000  0.75827558
   0.10871244 -0.00000000  0.77197245
   0.89128757  0.00000000  0.22802752
   0.50000000  0.50000000  0.00000000
   0.75805380  0.50000000  0.24172441
   0.24194623  0.50000000  0.75827558
   0.60871243  0.50000000  0.77197245
   0.39128757  0.50000000  0.22802752
Direct configuration=     4
   0.50000000  0.00000000  0.50000000
   0.15564283  0.00000000  0.46135116
   0.84435716  0.00000000  0.53864881
   0.87760889  0.50000000  0.99565810
   0.12239110  0.50000000  0.00434188
   0.00000000  0.50000000  0.50000000
   0.65564284  0.50000000  0.46135116
   0.34435719  0.50000000  0.53864881
   0.37760889 -0.00000000  0.99565810
   0.62239111  0.00000000  0.00434188
   0.00000000  0.00000000  0.00000000
   0.25805454  0.00000000  0.24172295
   0.74194543 -0.00000000  0.75827704
   0.10872841 -0.00000000  0.77206895
   0.89127160  0.00000000  0.22793102
   0.50000000  0.50000000  0.00000000
   0.75805457  0.50000000  0.24172295
   0.24194546  0.50000000  0.75827704
   0.60872840  0.50000000  0.77206895
   0.39127160  0.50000000  0.22793102
Direct configuration=     5
   0.50000000  0.00000000  0.50000000
   0.15563762  0.00000000  0.46131230
   0.84436236  0.00000000  0.53868767
   0.87759364  0.50000000  0.99567347
   0.12240635  0.50000000  0.00432651
   0.00000000  0.50000000  0.50000000
   0.65563764  0.50000000  0.46131230
   0.34436239  0.50000000  0.53868767
   0.37759364 -0.00000000  0.99567347
   0.62240636  0.00000000  0.00432651
   0.00000000  0.00000000  0.00000000
   0.25805515  0.00000000  0.24182410
   0.74194482 -0.00000000  0.75817589
   0.10872693 -0.00000000  0.77208225
   0.89127308  0.00000000  0.22791772
   0.50000000  0.50000000  0.00000000
   0.75805518  0.50000000  0.24182410
   0.24194485  0.50000000  0.75817589
   0.60872692  0.50000000  0.77208225
   0.39127308  0.50000000  0.22791772
Direct configuration=     6
   0.50000000  0.00000000  0.50000000
   0.15562979  0.00000000  0.46125387
   0.84437019 -0.00000000  0.53874610
   0.87757072  0.50000000  0.99569658
   0.12242927  0.50000000  0.00430340
   0.00000000  0.50000000  0.50000000
   0.65562981  0.50000000  0.46125387
   0.34437022  0.50000000  0.53874610
   0.37757072 -0.00000000  0.99569658
   0.62242928 -0.00000000  0.00430340
   0.00000000  0.00000000  0.00000000
   0.25805608  0.00000000  0.24197618
   0.74194389 -0.00000000  0.75802380
   0.10872471 -0.00000000  0.77210225
   0.89127530  0.00000000  0.22789772
   0.50000000  0.50000000  0.00000000
   0.75805611  0.50000000  0.24197618
   0.24194392  0.50000000  0.75802380
   0.60872470  0.50000000  0.77210225
   0.39127530  0.50000000  0.22789772
Direct configuration=     7
   0.50000000  0.00000000  0.50000000
   0.15562925  0.00000000  0.46124981
   0.84437074 -0.00000000  0.53875017
   0.87756912  0.50000000  0.99569819
   0.12243087  0.50000000  0.00430179
   0.00000000  0.50000000  0.50000000
   0.65562926  0.50000000  0.46124981
   0.34437077  0.50000000  0.53875017
   0.37756912 -0.00000000  0.99569819
   0.62243088 -0.00000000  0.00430179
   0.00000000  0.00000000  0.00000000
   0.25805615  0.00000000  0.24198676
   0.74194382 -0.00000000  0.75801322
   0.10872456 -0.00000000  0.77210365
   0.89127546  0.00000000  0.22789632
   0.50000000  0.50000000  0.00000000
   0.75805618  0.50000000  0.24198676
   0.24194385  0.50000000  0.75801322
   0.60872454  0.50000000  0.77210365
   0.39127546  0.50000000  0.22789632
Direct configuration=     8
   0.50000000  0.00000000  0.50000000
   0.15560658  0.00000000  0.46125568
   0.84439340 -0.00000000  0.53874429
   0.87756483  0.50000000  0.99569152
   0.12243517  0.50000000  0.00430846
   0.00000000  0.50000000  0.50000000
   0.65560660  0.50000000  0.46125568
   0.34439343  0.50000000  0.53874429
   0.37756483 -0.00000000  0.99569152
   0.62243517 -0.00000000  0.00430846
   0.00000000  0.00000000  0.00000000
   0.25807031  0.00000000  0.24204280
   0.74192966 -0.00000000  0.75795718
   0.10873480 -0.00000000  0.77209466
   0.89126521  0.00000000  0.22790531
   0.50000000  0.50000000  0.00000000
   0.75807034  0.50000000  0.24204280
   0.24192969  0.50000000  0.75795718
   0.60873479  0.50000000  0.77209466
   0.39126521  0.50000000  0.22790531
Direct configuration=     9
   0.50000000  0.00000000  0.50000000
   0.15558805  0.00000000  0.46126048
   0.84441194 -0.00000000  0.53873949
   0.87756131  0.50000000  0.99568607
   0.12243868  0.50000000  0.00431391
   0.00000000  0.50000000  0.50000000
   0.65558806  0.50000000  0.46126048
   0.34441197  0.50000000  0.53873949
   0.37756131 -0.00000000  0.99568607
   0.62243869 -0.00000000  0.00431391
   0.00000000  0.00000000  0.00000000
   0.25808189  0.00000000  0.24208864
   0.74191808 -0.00000000  0.75791135
   0.10874318 -0.00000000  0.77208731
   0.89125684  0.00000000  0.22791266
   0.50000000  0.50000000  0.00000000
   0.75808192  0.50000000  0.24208864
   0.24191811  0.50000000  0.75791135
   0.60874316  0.50000000  0.77208731
   0.39125684  0.50000000  0.22791266
Direct configuration=    10
   0.50000000 -0.00000000  0.50000000
   0.15557753 -0.00000000  0.46125090
   0.84442245 -0.00000000  0.53874907
   0.87755899  0.50000000  0.99567284
   0.12244100  0.50000000  0.00432714
   0.00000000  0.50000000  0.50000000
   0.65557755  0.50000000  0.46125090
   0.34442248  0.50000000  0.53874907
   0.37755899 -0.00000000  0.99567284
   0.62244101 -0.00000000  0.00432714
   0.00000000 -0.00000000  0.00000000
   0.25807669  0.00000000  0.24209342
   0.74192328 -0.00000000  0.75790656
   0.10875831 -0.00000000  0.77211144
   0.89124170  0.00000000  0.22788853
   0.50000000  0.50000000  0.00000000
   0.75807672  0.50000000  0.24209342
   0.24192331  0.50000000  0.75790656
   0.60875830  0.50000000  0.77211144
   0.39124170  0.50000000  0.22788853
Direct configuration=    11
   0.50000000 -0.00000000  0.50000000
   0.15555258 -0.00000000  0.46122818
   0.84444740 -0.00000000  0.53877179
   0.87755349  0.50000000  0.99564144
   0.12244651  0.50000000  0.00435854
   0.00000000  0.50000000  0.50000000
   0.65555260  0.50000000  0.46122818
   0.34444743  0.50000000  0.53877179
   0.37755349 -0.00000000  0.99564144
   0.62244651 -0.00000000  0.00435854
   0.00000000 -0.00000000  0.00000000
   0.25806436  0.00000000  0.24210478
   0.74193561  0.00000000  0.75789521
   0.10879423  0.00000000  0.77216869
   0.89120578  0.00000000  0.22783128
   0.50000000  0.50000000  0.00000000
   0.75806439  0.50000000  0.24210478
   0.24193564  0.50000000  0.75789521
   0.60879422  0.50000000  0.77216869
   0.39120578  0.50000000  0.22783128
Direct configuration=    12
   0.50000000 -0.00000000  0.50000000
   0.15554751 -0.00000000  0.46122104
   0.84445247 -0.00000000  0.53877893
   0.87755810  0.50000000  0.99563826
   0.12244189  0.50000000  0.00436171
   0.00000000  0.50000000  0.50000000
   0.65554753  0.50000000  0.46122104
   0.34445250  0.50000000  0.53877893
   0.37755810 -0.00000000  0.99563826
   0.62244190 -0.00000000  0.00436171
   0.00000000 -0.00000000  0.00000000
   0.25807616  0.00000000  0.24212170
   0.74192381  0.00000000  0.75787829
   0.10880582  0.00000000  0.77218922
   0.89119419  0.00000000  0.22781075
   0.50000000  0.50000000  0.00000000
   0.75807619  0.50000000  0.24212170
   0.24192384  0.50000000  0.75787829
   0.60880581  0.50000000  0.77218922
   0.39119419  0.50000000  0.22781075
