       N       E                     dE             d eps       ncg     rms          rms(c)
DAV:   1     0.927197336836E+03    0.92720E+03   -0.54039E+04 49056   0.174E+03
DAV:   2     0.531464106770E+00   -0.92667E+03   -0.89624E+03 49056   0.398E+02
DAV:   3    -0.921580619950E+02   -0.92690E+02   -0.87998E+02 51444   0.148E+02
DAV:   4    -0.956678561905E+02   -0.35098E+01   -0.34485E+01 57424   0.280E+01
DAV:   5    -0.957605966094E+02   -0.92740E-01   -0.92491E-01 59296   0.393E+00    0.340E+01
RMM:   6    -0.103706590293E+03   -0.79460E+01   -0.42703E+02 49129   0.123E+02    0.253E+01
RMM:   7    -0.790331011713E+02    0.24673E+02   -0.91868E+01 49056   0.615E+01    0.286E+00
RMM:   8    -0.790822127781E+02   -0.49112E-01   -0.94107E+00 49056   0.159E+01    0.460E+00
RMM:   9    -0.786544386831E+02    0.42777E+00   -0.97745E-01 49057   0.626E+00    0.572E-01
RMM:  10    -0.786484103569E+02    0.60283E-02   -0.30597E-02 49062   0.738E-01    0.329E-01
RMM:  11    -0.786456442086E+02    0.27661E-02   -0.20561E-02 49056   0.611E-01    0.757E-02
RMM:  12    -0.786455730042E+02    0.71204E-04   -0.50951E-04 49059   0.929E-02    0.503E-02
RMM:  13    -0.786455507156E+02    0.22289E-04   -0.20140E-04 49056   0.767E-02    0.232E-02
RMM:  14    -0.786455369463E+02    0.13769E-04   -0.30971E-05 31409   0.343E-02    0.541E-03
RMM:  15    -0.786455374118E+02   -0.46550E-06   -0.57263E-06 27603   0.131E-02
   1 F= -.78645537E+02 E0= -.78641148E+02  d E =-.786455E+02
       N       E                     dE             d eps       ncg     rms          rms(c)
DAV:   1    -0.786456664775E+02   -0.12953E-03   -0.85162E-03 52560   0.338E-01    0.867E-03
RMM:   2    -0.786456689714E+02   -0.24939E-05   -0.40561E-05 35236   0.413E-02    0.997E-03
RMM:   3    -0.786456664896E+02    0.24818E-05   -0.18611E-05 26004   0.268E-02    0.420E-03
RMM:   4    -0.786456661599E+02    0.32966E-06   -0.31776E-06 25617   0.129E-02
   2 F= -.78645666E+02 E0= -.78641279E+02  d E =-.128748E-03
       N       E                     dE             d eps       ncg     rms          rms(c)
DAV:   1    -0.786459048640E+02   -0.23837E-03   -0.76695E-02 50740   0.101E+00    0.262E-02
RMM:   2    -0.786459052888E+02   -0.42478E-06   -0.25234E-04 49055   0.102E-01    0.125E-02
RMM:   3    -0.786459015801E+02    0.37086E-05   -0.21759E-05 27885   0.279E-02    0.819E-04
RMM:   4    -0.786459020799E+02   -0.49976E-06   -0.40431E-06 25842   0.124E-02
   3 F= -.78645902E+02 E0= -.78641521E+02  d E =-.364668E-03
       N       E                     dE             d eps       ncg     rms          rms(c)
DAV:   1    -0.786457003039E+02    0.20128E-03   -0.30673E-01 49516   0.202E+00    0.515E-02
RMM:   2    -0.786456897991E+02    0.10505E-04   -0.99057E-04 49056   0.200E-01    0.467E-03
RMM:   3    -0.786456930783E+02   -0.32792E-05   -0.43179E-05 35102   0.314E-02    0.306E-03
RMM:   4    -0.786456934228E+02   -0.34451E-06   -0.71081E-06 27150   0.168E-02
   4 F= -.78645693E+02 E0= -.78641324E+02  d E =-.156011E-03
       N       E                     dE             d eps       ncg     rms          rms(c)
DAV:   1    -0.786459390854E+02   -0.24601E-03   -0.16457E-01 49400   0.148E+00    0.380E-02
RMM:   2    -0.786459346804E+02    0.44050E-05   -0.52945E-04 49056   0.147E-01    0.236E-03
RMM:   3    -0.786459360434E+02   -0.13629E-05   -0.18120E-05 28809   0.205E-02    0.106E-03
RMM:   4    -0.786459363818E+02   -0.33840E-06   -0.33544E-06 26187   0.886E-03
   5 F= -.78645936E+02 E0= -.78641559E+02  d E =-.398970E-03
       N       E                     dE             d eps       ncg     rms          rms(c)
DAV:   1    -0.786460119556E+02   -0.75912E-04   -0.12509E-02 50192   0.415E-01    0.101E-02
RMM:   2    -0.786460485428E+02   -0.36587E-04   -0.19640E-04 49056   0.826E-02    0.386E-02
RMM:   3    -0.786460119472E+02    0.36596E-04   -0.12836E-04 47044   0.671E-02    0.456E-03
RMM:   4    -0.786460124458E+02   -0.49868E-06   -0.15210E-05 25131   0.188E-02
   6 F= -.78646012E+02 E0= -.78641637E+02  d E =-.760641E-04
       N       E                     dE             d eps       ncg     rms          rms(c)
DAV:   1    -0.786460607407E+02   -0.48794E-04   -0.45241E-02 49304   0.790E-01    0.191E-02
RMM:   2    -0.786460599299E+02    0.81084E-06   -0.16930E-04 49055   0.824E-02    0.350E-03
RMM:   3    -0.786460600467E+02   -0.11689E-06   -0.64760E-06 26597   0.123E-02    0.305E-03
RMM:   4    -0.786460601296E+02   -0.82876E-07   -0.17980E-06 25712   0.825E-03
   7 F= -.78646060E+02 E0= -.78641689E+02  d E =-.123748E-03
       N       E                     dE             d eps       ncg     rms          rms(c)
DAV:   1    -0.786460875176E+02   -0.27471E-04   -0.13736E-02 50040   0.429E-01    0.998E-03
RMM:   2    -0.786460867844E+02    0.73321E-06   -0.24673E-05 26905   0.343E-02    0.677E-03
RMM:   3    -0.786460857657E+02    0.10188E-05   -0.48505E-06 25139   0.115E-02    0.371E-03
RMM:   4    -0.786460859435E+02   -0.17785E-06   -0.37077E-06 24945   0.125E-02
   8 F= -.78646086E+02 E0= -.78641718E+02  d E =-.258139E-04
       N       E                     dE             d eps       ncg     rms          rms(c)
DAV:   1    -0.786461013101E+02   -0.15544E-04   -0.22591E-02 49312   0.550E-01    0.130E-02
RMM:   2    -0.786460982808E+02    0.30293E-05   -0.43586E-05 36985   0.438E-02    0.310E-03
RMM:   3    -0.786460985871E+02   -0.30630E-06   -0.34091E-06 25151   0.102E-02    0.153E-03
RMM:   4    -0.786460986685E+02   -0.81380E-07   -0.79863E-07 24915   0.492E-03
   9 F= -.78646099E+02 E0= -.78641734E+02  d E =-.385389E-04
       N       E                     dE             d eps       ncg     rms          rms(c)
DAV:   1    -0.786461073483E+02   -0.87612E-05   -0.48397E-03 49980   0.256E-01    0.620E-03
RMM:   2    -0.786461070330E+02    0.31537E-06   -0.10363E-05 25463   0.225E-02    0.370E-03
RMM:   3    -0.786461066123E+02    0.42070E-06   -0.32664E-06 24833   0.105E-02    0.276E-03
RMM:   4    -0.786461068180E+02   -0.20575E-06   -0.80818E-07 24693   0.434E-03
  10 F= -.78646107E+02 E0= -.78641742E+02  d E =-.814949E-05
       N       E                     dE             d eps       ncg     rms          rms(c)
DAV:   1    -0.786461097917E+02   -0.31794E-05   -0.44383E-03 49460   0.245E-01    0.616E-03
RMM:   2    -0.786461091584E+02    0.63334E-06   -0.84112E-06 25250   0.202E-02    0.108E-03
RMM:   3    -0.786461093119E+02   -0.15358E-06   -0.11374E-06 24751   0.560E-03    0.470E-04
RMM:   4    -0.786461093413E+02   -0.29332E-07   -0.16521E-07 15337   0.310E-03
  11 F= -.78646109E+02 E0= -.78641745E+02  d E =-.106728E-04
       N       E                     dE             d eps       ncg     rms          rms(c)
DAV:   1    -0.786461108088E+02   -0.14969E-05   -0.16479E-03 50292   0.149E-01    0.352E-03
RMM:   2    -0.786461109199E+02   -0.11111E-06   -0.40333E-06 24847   0.137E-02    0.200E-03
RMM:   3    -0.786461107042E+02    0.21570E-06   -0.70834E-07 24606   0.450E-03    0.132E-03
RMM:   4    -0.786461107667E+02   -0.62469E-07   -0.94524E-08  9920   0.259E-03
  12 F= -.78646111E+02 E0= -.78641747E+02  d E =-.142542E-05
