       N       E                     dE             d eps       ncg     rms          rms(c)
DAV:   1     0.930383679374E+03    0.93038E+03   -0.54058E+04 30576   0.175E+03
DAV:   2     0.120962979370E+01   -0.92917E+03   -0.89882E+03 30576   0.400E+02
DAV:   3    -0.922780470588E+02   -0.93488E+02   -0.88821E+02 31896   0.148E+02
DAV:   4    -0.958365252412E+02   -0.35585E+01   -0.34945E+01 35984   0.282E+01
DAV:   5    -0.959298173531E+02   -0.93292E-01   -0.93044E-01 36980   0.396E+00    0.342E+01
RMM:   6    -0.103681915359E+03   -0.77521E+01   -0.42848E+02 30632   0.123E+02    0.252E+01
RMM:   7    -0.790199111341E+02    0.24662E+02   -0.92179E+01 30576   0.617E+01    0.281E+00
RMM:   8    -0.790790019037E+02   -0.59091E-01   -0.93193E+00 30576   0.158E+01    0.462E+00
RMM:   9    -0.786475360759E+02    0.43147E+00   -0.99088E-01 30576   0.630E+00    0.594E-01
RMM:  10    -0.786413396977E+02    0.61964E-02   -0.30848E-02 30580   0.771E-01    0.339E-01
RMM:  11    -0.786383269730E+02    0.30127E-02   -0.21993E-02 30576   0.627E-01    0.752E-02
RMM:  12    -0.786382704595E+02    0.56513E-04   -0.57764E-04 30579   0.993E-02    0.533E-02
RMM:  13    -0.786382438119E+02    0.26648E-04   -0.21162E-04 30576   0.777E-02    0.260E-02
RMM:  14    -0.786382260527E+02    0.17759E-04   -0.35216E-05 20953   0.364E-02    0.476E-03
RMM:  15    -0.786382265556E+02   -0.50290E-06   -0.56847E-06 17222   0.129E-02
   1 F= -.78638227E+02 E0= -.78633792E+02  d E =-.786382E+02
       N       E                     dE             d eps       ncg     rms          rms(c)
DAV:   1    -0.786396243538E+02   -0.13983E-02   -0.15536E-01 32740   0.144E+00    0.351E-02
RMM:   2    -0.786396329563E+02   -0.86024E-05   -0.34361E-04 30577   0.123E-01    0.271E-02
RMM:   3    -0.786396097232E+02    0.23233E-04   -0.10307E-04 30565   0.516E-02    0.878E-03
RMM:   4    -0.786396086181E+02    0.11051E-05   -0.40316E-06 16359   0.127E-02
   2 F= -.78639609E+02 E0= -.78635172E+02  d E =-.138206E-02
       N       E                     dE             d eps       ncg     rms          rms(c)
DAV:   1    -0.786423589478E+02   -0.27492E-02   -0.13987E+00 31236   0.433E+00    0.105E-01
RMM:   2    -0.786422014386E+02    0.15751E-03   -0.27363E-03 30576   0.352E-01    0.128E-02
RMM:   3    -0.786422062334E+02   -0.47948E-05   -0.11323E-04 30089   0.507E-02    0.372E-03
RMM:   4    -0.786422067323E+02   -0.49894E-06   -0.82331E-06 17267   0.175E-02
   3 F= -.78642207E+02 E0= -.78637765E+02  d E =-.398018E-02
       N       E                     dE             d eps       ncg     rms          rms(c)
DAV:   1    -0.786410883530E+02    0.11179E-02   -0.56009E+00 30608   0.867E+00    0.211E-01
RMM:   2    -0.786405191091E+02    0.56924E-03   -0.11403E-02 30576   0.713E-01    0.258E-02
RMM:   3    -0.786405455380E+02   -0.26429E-04   -0.43904E-04 30763   0.101E-01    0.106E-02
RMM:   4    -0.786405466968E+02   -0.11587E-05   -0.34648E-05 19790   0.345E-02
   4 F= -.78640547E+02 E0= -.78636100E+02  d E =-.232014E-02
       N       E                     dE             d eps       ncg     rms          rms(c)
DAV:   1    -0.786429520672E+02   -0.24065E-02   -0.26875E+00 30632   0.600E+00    0.148E-01
RMM:   2    -0.786426513868E+02    0.30068E-03   -0.54027E-03 30576   0.501E-01    0.940E-03
RMM:   3    -0.786426696164E+02   -0.18230E-04   -0.21129E-04 30667   0.672E-02    0.116E-02
RMM:   4    -0.786426694043E+02    0.21204E-06   -0.10271E-05 17848   0.173E-02
   5 F= -.78642669E+02 E0= -.78638225E+02  d E =-.444285E-02
       N       E                     dE             d eps       ncg     rms          rms(c)
DAV:   1    -0.786436241839E+02   -0.95457E-03   -0.11582E-01 30916   0.128E+00    0.326E-02
RMM:   2    -0.786437427029E+02   -0.11852E-03   -0.96648E-04 30576   0.197E-01    0.606E-02
RMM:   3    -0.786436855857E+02    0.57117E-04   -0.10612E-04 30667   0.546E-02    0.369E-02
RMM:   4    -0.786436507339E+02    0.34852E-04   -0.18458E-04 30215   0.753E-02    0.619E-03
RMM:   5    -0.786436528995E+02   -0.21656E-05   -0.72823E-06 16630   0.112E-02
   6 F= -.78643653E+02 E0= -.78639205E+02  d E =-.983495E-03
       N       E                     dE             d eps       ncg     rms          rms(c)
DAV:   1    -0.786440094608E+02   -0.35873E-03   -0.14054E-01 30840   0.140E+00    0.350E-02
RMM:   2    -0.786440423189E+02   -0.32858E-04   -0.84641E-04 30576   0.187E-01    0.605E-03
RMM:   3    -0.786440450655E+02   -0.27466E-05   -0.39151E-05 21203   0.264E-02    0.332E-03
RMM:   4    -0.786440456291E+02   -0.56358E-06   -0.51295E-06 16803   0.124E-02
   7 F= -.78644046E+02 E0= -.78639594E+02  d E =-.137622E-02
       N       E                     dE             d eps       ncg     rms          rms(c)
DAV:   1    -0.786441529048E+02   -0.10784E-03   -0.29692E-02 31656   0.631E-01    0.158E-02
RMM:   2    -0.786441732832E+02   -0.20378E-04   -0.18419E-04 30576   0.848E-02    0.297E-02
RMM:   3    -0.786441515267E+02    0.21757E-04   -0.47689E-05 24637   0.437E-02    0.942E-03
RMM:   4    -0.786441535876E+02   -0.20610E-05   -0.33243E-05 19570   0.313E-02
   8 F= -.78644154E+02 E0= -.78639703E+02  d E =-.107959E-03
       N       E                     dE             d eps       ncg     rms          rms(c)
DAV:   1    -0.786442191725E+02   -0.67646E-04   -0.71120E-02 30684   0.977E-01    0.250E-02
RMM:   2    -0.786442155090E+02    0.36635E-05   -0.19100E-04 30568   0.902E-02    0.630E-03
RMM:   3    -0.786442140518E+02    0.14572E-05   -0.11622E-05 16684   0.205E-02    0.253E-03
RMM:   4    -0.786442142730E+02   -0.22113E-06   -0.23692E-06 16031   0.854E-03
   9 F= -.78644214E+02 E0= -.78639764E+02  d E =-.168644E-03
       N       E                     dE             d eps       ncg     rms          rms(c)
DAV:   1    -0.786442260496E+02   -0.11998E-04   -0.40095E-03 31832   0.233E-01    0.559E-03
RMM:   2    -0.786442269123E+02   -0.86268E-06   -0.12562E-05 16108   0.240E-02    0.500E-03
RMM:   3    -0.786442270181E+02   -0.10577E-06   -0.31409E-06 15532   0.104E-02    0.678E-03
RMM:   4    -0.786442264230E+02    0.59513E-06   -0.13252E-06 15448   0.783E-03
  10 F= -.78644226E+02 E0= -.78639777E+02  d E =-.121500E-04
       N       E                     dE             d eps       ncg     rms          rms(c)
DAV:   1    -0.786442334455E+02   -0.64274E-05   -0.99481E-03 30724   0.367E-01    0.101E-02
RMM:   2    -0.786442350392E+02   -0.15937E-05   -0.27494E-05 17608   0.363E-02    0.111E-02
RMM:   3    -0.786442340874E+02    0.95176E-06   -0.33897E-06 15577   0.105E-02    0.817E-03
RMM:   4    -0.786442329379E+02    0.11495E-05   -0.14978E-06 15462   0.694E-03
  11 F= -.78644233E+02 E0= -.78639786E+02  d E =-.186649E-04
       N       E                     dE             d eps       ncg     rms          rms(c)
DAV:   1    -0.786442340059E+02    0.81500E-07   -0.14175E-03 31380   0.139E-01    0.399E-03
RMM:   2    -0.786442341397E+02   -0.13375E-06   -0.37953E-06 15500   0.131E-02    0.134E-03
RMM:   3    -0.786442340417E+02    0.98003E-07   -0.63781E-07 15353   0.422E-03    0.183E-03
RMM:   4    -0.786442339161E+02    0.12554E-06   -0.29968E-07 14267   0.369E-03
  12 F= -.78644234E+02 E0= -.78639787E+02  d E =-.978225E-06
       N       E                     dE             d eps       ncg     rms          rms(c)
DAV:   1    -0.786442338127E+02    0.22896E-06   -0.38009E-05 25276   0.238E-02    0.107E-03
RMM:   2    -0.786442337815E+02    0.31161E-07   -0.31761E-07 10046   0.382E-03    0.366E-04
RMM:   3    -0.786442337984E+02   -0.16825E-07   -0.73678E-08  5095   0.202E-03    0.175E-04
RMM:   4    -0.786442338097E+02   -0.11356E-07   -0.92501E-09  1629   0.152E-03
  13 F= -.78644234E+02 E0= -.78639787E+02  d E =-.871821E-06
       N       E                     dE             d eps       ncg     rms          rms(c)
DAV:   1    -0.786442349745E+02   -0.11761E-05   -0.10052E-03 30760   0.117E-01    0.299E-03
RMM:   2    -0.786442346848E+02    0.28972E-06   -0.18869E-06 15320   0.954E-03    0.150E-03
RMM:   3    -0.786442346765E+02    0.82715E-08   -0.22543E-07 11743   0.310E-03    0.832E-04
RMM:   4    -0.786442346496E+02    0.26893E-07   -0.24015E-08  3015   0.189E-03
  14 F= -.78644235E+02 E0= -.78639787E+02  d E =-.839885E-06
