AlCu                                    
           1
    12.119859    0.000000    0.129766
     0.000000    4.104732    0.000000
    -3.916863    0.000000    5.645121
   Al   Cu
  10  10
Direct configuration=     1
   0.50000000  0.00000000  0.50000000
   0.15587366  0.00000000  0.46137374
   0.84412632  0.00000000  0.53862623
   0.87805559  0.50000000  0.99541334
   0.12194440  0.50000000  0.00458663
   0.00000000  0.50000000  0.50000000
   0.65587368  0.50000000  0.46137374
   0.34412635  0.50000000  0.53862623
   0.37805559  0.00000000  0.99541334
   0.62194441  0.00000000  0.00458663
   0.00000000  0.00000000  0.00000000
   0.25805145  0.00000000  0.24172886
   0.74194852  0.00000000  0.75827112
   0.10866387  0.00000000  0.77167894
   0.89133614  0.00000000  0.22832103
   0.50000000  0.50000000  0.00000000
   0.75805148  0.50000000  0.24172886
   0.24194855  0.50000000  0.75827112
   0.60866386  0.50000000  0.77167894
   0.39133614  0.50000000  0.22832103
Direct configuration=     2
   0.50000000 -0.00000000  0.50000000
   0.15584109 -0.00000000  0.46133407
   0.84415889 -0.00000000  0.53866591
   0.87794427  0.50000000  0.99509474
   0.12205573  0.50000000  0.00490523
  -0.00000000  0.50000000  0.50000000
   0.65584111  0.50000000  0.46133407
   0.34415892  0.50000000  0.53866591
   0.37794427 -0.00000000  0.99509474
   0.62205573 -0.00000000  0.00490523
  -0.00000000 -0.00000000 -0.00000000
   0.25824795 -0.00000000  0.24166124
   0.74175202 -0.00000000  0.75833874
   0.10860673  0.00000000  0.77160031
   0.89139329  0.00000000  0.22839966
   0.50000000  0.50000000 -0.00000000
   0.75824798  0.50000000  0.24166124
   0.24175205  0.50000000  0.75833874
   0.60860671  0.50000000  0.77160031
   0.39139329  0.50000000  0.22839966
Direct configuration=     3
   0.50000000 -0.00000000  0.50000000
   0.15574339 -0.00000000  0.46121505
   0.84425660 -0.00000000  0.53878492
   0.87761029  0.50000000  0.99413894
   0.12238970  0.50000000  0.00586104
  -0.00000000  0.50000000  0.50000000
   0.65574340  0.50000000  0.46121505
   0.34425663  0.50000000  0.53878492
   0.37761029 -0.00000000  0.99413894
   0.62238971 -0.00000000  0.00586104
  -0.00000000 -0.00000000 -0.00000000
   0.25883745 -0.00000000  0.24145838
   0.74116252 -0.00000000  0.75854161
   0.10843530  0.00000000  0.77136444
   0.89156471  0.00000000  0.22863553
   0.50000000  0.50000000 -0.00000000
   0.75883748  0.50000000  0.24145838
   0.24116255  0.50000000  0.75854161
   0.60843529  0.50000000  0.77136444
   0.39156471  0.50000000  0.22863553
Direct configuration=     4
   0.50000000 -0.00000000  0.50000000
   0.15554798 -0.00000000  0.46097701
   0.84445200 -0.00000000  0.53902296
   0.87694234  0.50000000  0.99222733
   0.12305765  0.50000000  0.00777265
  -0.00000000  0.50000000  0.50000000
   0.65554800  0.50000000  0.46097701
   0.34445203  0.50000000  0.53902296
   0.37694234 -0.00000000  0.99222733
   0.62305766 -0.00000000  0.00777265
  -0.00000000 -0.00000000 -0.00000000
   0.26001644 -0.00000000  0.24105265
   0.73998353 -0.00000000  0.75894734
   0.10809245  0.00000000  0.77089268
   0.89190757  0.00000000  0.22910729
   0.50000000  0.50000000 -0.00000000
   0.76001647  0.50000000  0.24105265
   0.23998356  0.50000000  0.75894734
   0.60809243  0.50000000  0.77089268
   0.39190757  0.50000000  0.22910729
Direct configuration=     5
   0.50000000 -0.00000000  0.50000000
   0.15568342 -0.00000000  0.46114200
   0.84431656 -0.00000000  0.53885797
   0.87740530  0.50000000  0.99355228
   0.12259469  0.50000000  0.00644769
  -0.00000000  0.50000000  0.50000000
   0.65568344  0.50000000  0.46114200
   0.34431659  0.50000000  0.53885797
   0.37740530 -0.00000000  0.99355228
   0.62259470 -0.00000000  0.00644769
  -0.00000000 -0.00000000 -0.00000000
   0.25919927 -0.00000000  0.24133386
   0.74080070 -0.00000000  0.75866612
   0.10833008  0.00000000  0.77121966
   0.89166993  0.00000000  0.22878031
   0.50000000  0.50000000 -0.00000000
   0.75919930  0.50000000  0.24133386
   0.24080073  0.50000000  0.75866612
   0.60833007  0.50000000  0.77121966
   0.39166993  0.50000000  0.22878031
Direct configuration=     6
   0.50000000 -0.00000000  0.50000000
   0.15575587 -0.00000000  0.46078980
   0.84424411 -0.00000000  0.53921017
   0.87722548  0.50000000  0.99295539
   0.12277452  0.50000000  0.00704458
  -0.00000000  0.50000000  0.50000000
   0.65575589  0.50000000  0.46078980
   0.34424414  0.50000000  0.53921017
   0.37722548 -0.00000000  0.99295539
   0.62277452 -0.00000000  0.00704458
  -0.00000000 -0.00000000 -0.00000000
   0.25923343 -0.00000000  0.24123750
   0.74076654 -0.00000000  0.75876248
   0.10815227  0.00000000  0.77120248
   0.89184774  0.00000000  0.22879749
   0.50000000  0.50000000 -0.00000000
   0.75923346  0.50000000  0.24123750
   0.24076657  0.50000000  0.75876248
   0.60815226  0.50000000  0.77120248
   0.39184774  0.50000000  0.22879749
Direct configuration=     7
   0.50000000 -0.00000000  0.50000000
   0.15583564  0.00000000  0.46040200
   0.84416434 -0.00000000  0.53959797
   0.87702748  0.50000000  0.99229817
   0.12297252  0.50000000  0.00770180
  -0.00000000  0.50000000  0.50000000
   0.65583566  0.50000000  0.46040200
   0.34416437  0.50000000  0.53959797
   0.37702748 -0.00000000  0.99229817
   0.62297252 -0.00000000  0.00770180
  -0.00000000 -0.00000000 -0.00000000
   0.25927105 -0.00000000  0.24113140
   0.74072892 -0.00000000  0.75886859
   0.10795649  0.00000000  0.77118356
   0.89204352  0.00000000  0.22881641
   0.50000000  0.50000000 -0.00000000
   0.75927108  0.50000000  0.24113140
   0.24072895  0.50000000  0.75886859
   0.60795648  0.50000000  0.77118356
   0.39204352  0.50000000  0.22881641
Direct configuration=     8
   0.50000000 -0.00000000  0.50000000
   0.15582764  0.00000000  0.46045565
   0.84417235 -0.00000000  0.53954432
   0.87696372  0.50000000  0.99213172
   0.12303627  0.50000000  0.00786826
  -0.00000000  0.50000000  0.50000000
   0.65582765  0.50000000  0.46045565
   0.34417238  0.50000000  0.53954432
   0.37696372 -0.00000000  0.99213172
   0.62303628 -0.00000000  0.00786826
  -0.00000000 -0.00000000 -0.00000000
   0.25922863 -0.00000000  0.24112546
   0.74077134 -0.00000000  0.75887453
   0.10786081  0.00000000  0.77101783
   0.89213920  0.00000000  0.22898214
   0.50000000  0.50000000 -0.00000000
   0.75922866  0.50000000  0.24112546
   0.24077137  0.50000000  0.75887453
   0.60786080  0.50000000  0.77101783
   0.39213920  0.50000000  0.22898214
Direct configuration=     9
   0.50000000 -0.00000000  0.50000000
   0.15581525  0.00000000  0.46053869
   0.84418474 -0.00000000  0.53946129
   0.87686504  0.50000000  0.99187408
   0.12313495  0.50000000  0.00812589
  -0.00000000  0.50000000  0.50000000
   0.65581526  0.50000000  0.46053869
   0.34418477  0.50000000  0.53946129
   0.37686504 -0.00000000  0.99187408
   0.62313496 -0.00000000  0.00812589
  -0.00000000 -0.00000000 -0.00000000
   0.25916299 -0.00000000  0.24111627
   0.74083698 -0.00000000  0.75888372
   0.10771273  0.00000000  0.77076130
   0.89228729  0.00000000  0.22923867
   0.50000000  0.50000000 -0.00000000
   0.75916302  0.50000000  0.24111627
   0.24083701  0.50000000  0.75888372
   0.60771271  0.50000000  0.77076130
   0.39228729  0.50000000  0.22923867
Direct configuration=    10
   0.50000000  0.00000000  0.50000000
   0.15584420  0.00000000  0.46057349
   0.84415578  0.00000000  0.53942648
   0.87683847  0.50000000  0.99187336
   0.12316152  0.50000000  0.00812662
  -0.00000000  0.50000000  0.50000000
   0.65584422  0.50000000  0.46057349
   0.34415581  0.50000000  0.53942648
   0.37683847 -0.00000000  0.99187336
   0.62316153 -0.00000000  0.00812662
  -0.00000000  0.00000000 -0.00000000
   0.25917190  0.00000000  0.24113149
   0.74082807 -0.00000000  0.75886850
   0.10767196 -0.00000000  0.77073882
   0.89232805  0.00000000  0.22926115
   0.50000000  0.50000000 -0.00000000
   0.75917193  0.50000000  0.24113149
   0.24082810  0.50000000  0.75886850
   0.60767195  0.50000000  0.77073882
   0.39232805  0.50000000  0.22926115
Direct configuration=    11
   0.50000000  0.00000000  0.50000000
   0.15588981  0.00000000  0.46062833
   0.84411017  0.00000000  0.53937164
   0.87679661  0.50000000  0.99187222
   0.12320338  0.50000000  0.00812775
  -0.00000000  0.50000000  0.50000000
   0.65588983  0.50000000  0.46062833
   0.34411020  0.50000000  0.53937164
   0.37679661  0.00000000  0.99187222
   0.62320339 -0.00000000  0.00812775
  -0.00000000  0.00000000 -0.00000000
   0.25918594  0.00000000  0.24115546
   0.74081403 -0.00000000  0.75884452
   0.10760774 -0.00000000  0.77070341
   0.89239228  0.00000000  0.22929656
   0.50000000  0.50000000 -0.00000000
   0.75918597  0.50000000  0.24115546
   0.24081406  0.50000000  0.75884452
   0.60760772  0.50000000  0.77070341
   0.39239228  0.50000000  0.22929656
Direct configuration=    12
   0.50000000  0.00000000  0.50000000
   0.15590010  0.00000000  0.46066068
   0.84409989  0.00000000  0.53933929
   0.87679992  0.50000000  0.99188986
   0.12320007  0.50000000  0.00811011
  -0.00000000  0.50000000  0.50000000
   0.65590011  0.50000000  0.46066068
   0.34409992  0.50000000  0.53933929
   0.37679992 -0.00000000  0.99188986
   0.62320008 -0.00000000  0.00811011
  -0.00000000  0.00000000 -0.00000000
   0.25919193  0.00000000  0.24113743
   0.74080804 -0.00000000  0.75886255
   0.10759375 -0.00000000  0.77067062
   0.89240627  0.00000000  0.22932935
   0.50000000  0.50000000 -0.00000000
   0.75919196  0.50000000  0.24113743
   0.24080807  0.50000000  0.75886255
   0.60759373  0.50000000  0.77067062
   0.39240627  0.50000000  0.22932935
Direct configuration=    13
   0.50000000  0.00000000  0.50000000
   0.15590179  0.00000000  0.46066599
   0.84409820  0.00000000  0.53933398
   0.87680047  0.50000000  0.99189276
   0.12319953  0.50000000  0.00810722
  -0.00000000  0.50000000  0.50000000
   0.65590180  0.50000000  0.46066599
   0.34409823  0.50000000  0.53933398
   0.37680047 -0.00000000  0.99189276
   0.62319953 -0.00000000  0.00810722
  -0.00000000  0.00000000 -0.00000000
   0.25919292  0.00000000  0.24113447
   0.74080705 -0.00000000  0.75886551
   0.10759145 -0.00000000  0.77066524
   0.89240856  0.00000000  0.22933473
   0.50000000  0.50000000 -0.00000000
   0.75919295  0.50000000  0.24113447
   0.24080708  0.50000000  0.75886551
   0.60759144  0.50000000  0.77066524
   0.39240856  0.50000000  0.22933473
Direct configuration=    14
   0.50000000  0.00000000  0.50000000
   0.15591667 -0.00000000  0.46067564
   0.84408332  0.00000000  0.53932433
   0.87681289  0.50000000  0.99191481
   0.12318710  0.50000000  0.00808516
  -0.00000000  0.50000000  0.50000000
   0.65591668  0.50000000  0.46067564
   0.34408335  0.50000000  0.53932433
   0.37681289 -0.00000000  0.99191481
   0.62318711  0.00000000  0.00808516
  -0.00000000  0.00000000 -0.00000000
   0.25918313  0.00000000  0.24110414
   0.74081684 -0.00000000  0.75889585
   0.10757987 -0.00000000  0.77064344
   0.89242015  0.00000000  0.22935653
   0.50000000  0.50000000 -0.00000000
   0.75918316  0.50000000  0.24110414
   0.24081687  0.50000000  0.75889585
   0.60757985  0.50000000  0.77064344
   0.39242015  0.50000000  0.22935653
