       N       E                     dE             d eps       ncg     rms          rms(c)
DAV:   1     0.875545857688E+03    0.87555E+03   -0.83418E+04 13752   0.175E+03
DAV:   2    -0.195224824035E+03   -0.10708E+04   -0.10451E+04 16896   0.348E+02
DAV:   3    -0.250385910483E+03   -0.55161E+02   -0.54941E+02 16200   0.854E+01
DAV:   4    -0.251034922413E+03   -0.64901E+00   -0.64719E+00 16184   0.102E+01
DAV:   5    -0.251045705114E+03   -0.10783E-01   -0.10769E-01 16056   0.127E+00    0.296E+01
RMM:   6    -0.226573603528E+03    0.24472E+02   -0.11274E+02 13728   0.315E+01    0.801E+00
RMM:   7    -0.226497928063E+03    0.75675E-01   -0.23048E+00 13728   0.391E+00    0.546E+00
RMM:   8    -0.226529772797E+03   -0.31845E-01   -0.64436E-01 13728   0.397E+00    0.112E+00
RMM:   9    -0.226505861185E+03    0.23912E-01   -0.25238E-01 13728   0.150E+00    0.301E-01
RMM:  10    -0.226506139376E+03   -0.27819E-03   -0.52691E-03 13743   0.247E-01    0.282E-01
RMM:  11    -0.226504314066E+03    0.18253E-02   -0.10205E-02 13728   0.311E-01    0.223E-02
RMM:  12    -0.226504313868E+03    0.19803E-06   -0.10101E-04 13728   0.378E-02    0.753E-03
RMM:  13    -0.226504313149E+03    0.71900E-06   -0.69416E-06 12310   0.789E-03
   1 F= -.22650431E+03 E0= -.22650431E+03  d E =-.226504E+03
       N       E                     dE             d eps       ncg     rms          rms(c)
DAV:   1    -0.226508292128E+03   -0.39783E-02   -0.22725E-01 16096   0.187E+00    0.895E-02
RMM:   2    -0.226508947962E+03   -0.65583E-03   -0.80000E-03 13728   0.318E-01    0.583E-02
RMM:   3    -0.226508891793E+03    0.56170E-04   -0.33539E-04 13728   0.613E-02    0.636E-02
RMM:   4    -0.226508847690E+03    0.44103E-04   -0.12099E-03 13728   0.107E-01    0.450E-02
RMM:   5    -0.226508799218E+03    0.48472E-04   -0.16914E-04 13728   0.418E-02    0.473E-03
RMM:   6    -0.226508802151E+03   -0.29334E-05   -0.32398E-05 13723   0.170E-02    0.117E-02
RMM:   7    -0.226508799336E+03    0.28147E-05   -0.14325E-05 13323   0.120E-02    0.287E-04
RMM:   8    -0.226508799306E+03    0.30589E-07   -0.82770E-08  7091   0.109E-03
   2 F= -.22650880E+03 E0= -.22650880E+03  d E =-.448616E-02
       N       E                     dE             d eps       ncg     rms          rms(c)
DAV:   1    -0.226509414317E+03   -0.61498E-03   -0.96913E-02 15104   0.122E+00    0.585E-02
RMM:   2    -0.226509631757E+03   -0.21744E-03   -0.29781E-03 13728   0.200E-01    0.388E-03
RMM:   3    -0.226509621827E+03    0.99303E-05   -0.35788E-05 13865   0.197E-02    0.344E-03
RMM:   4    -0.226509621811E+03    0.16422E-07   -0.24641E-06  8595   0.534E-03
   3 F= -.22650962E+03 E0= -.22650962E+03  d E =-.530866E-02
       N       E                     dE             d eps       ncg     rms          rms(c)
DAV:   1    -0.226510017923E+03   -0.39610E-03   -0.96136E-02 14880   0.127E+00    0.365E-02
RMM:   2    -0.226510167976E+03   -0.15005E-03   -0.19877E-03 13728   0.168E-01    0.301E-02
RMM:   3    -0.226510166250E+03    0.17270E-05   -0.89376E-05 13728   0.299E-02    0.323E-02
RMM:   4    -0.226510156741E+03    0.95084E-05   -0.57203E-05 13728   0.233E-02    0.190E-02
RMM:   5    -0.226510153042E+03    0.36986E-05   -0.72197E-06 12436   0.832E-03    0.126E-02
RMM:   6    -0.226510149393E+03    0.36498E-05   -0.10452E-05 13596   0.974E-03    0.115E-03
RMM:   7    -0.226510149413E+03   -0.20222E-07   -0.15855E-07  7713   0.125E-03
   4 F= -.22651015E+03 E0= -.22651015E+03  d E =-.527602E-03
       N       E                     dE             d eps       ncg     rms          rms(c)
DAV:   1    -0.226510183669E+03   -0.34277E-04   -0.25773E-02 15072   0.657E-01    0.188E-02
RMM:   2    -0.226510220427E+03   -0.36757E-04   -0.49312E-04 13728   0.846E-02    0.136E-03
RMM:   3    -0.226510219178E+03    0.12487E-05   -0.66722E-06 10788   0.854E-03    0.470E-04
RMM:   4    -0.226510219218E+03   -0.40348E-07   -0.43714E-07  8023   0.234E-03
   5 F= -.22651022E+03 E0= -.22651022E+03  d E =-.597408E-03
       N       E                     dE             d eps       ncg     rms          rms(c)
DAV:   1    -0.226510248646E+03   -0.29468E-04   -0.12778E-02 14760   0.453E-01    0.132E-02
RMM:   2    -0.226510272572E+03   -0.23926E-04   -0.26505E-04 13728   0.601E-02    0.100E-02
RMM:   3    -0.226510275723E+03   -0.31505E-05   -0.17762E-05 13703   0.131E-02    0.157E-02
RMM:   4    -0.226510270923E+03    0.47994E-05   -0.38145E-05 13727   0.189E-02    0.317E-03
RMM:   5    -0.226510270643E+03    0.28032E-06   -0.43966E-07  8045   0.213E-03
   6 F= -.22651027E+03 E0= -.22651027E+03  d E =-.514247E-04
       N       E                     dE             d eps       ncg     rms          rms(c)
DAV:   1    -0.226510244826E+03    0.26097E-04   -0.33731E-02 14536   0.736E-01    0.214E-02
RMM:   2    -0.226510303495E+03   -0.58668E-04   -0.65182E-04 13728   0.958E-02    0.152E-03
RMM:   3    -0.226510302416E+03    0.10785E-05   -0.10714E-05 11386   0.977E-03    0.904E-04
RMM:   4    -0.226510302426E+03   -0.97921E-08   -0.50419E-07  8098   0.233E-03
   7 F= -.22651030E+03 E0= -.22651030E+03  d E =-.832075E-04
       N       E                     dE             d eps       ncg     rms          rms(c)
DAV:   1    -0.226510303111E+03   -0.69458E-06   -0.52111E-03 15048   0.289E-01    0.100E-02
RMM:   2    -0.226510315955E+03   -0.12845E-04   -0.12456E-04 13728   0.413E-02    0.760E-03
RMM:   3    -0.226510316178E+03   -0.22225E-06   -0.21611E-05 13728   0.145E-02    0.978E-03
RMM:   4    -0.226510314283E+03    0.18951E-05   -0.32513E-06  9179   0.605E-03    0.317E-03
RMM:   5    -0.226510314228E+03    0.54843E-07   -0.95989E-07  7803   0.336E-03
   8 F= -.22651031E+03 E0= -.22651031E+03  d E =-.118019E-04
       N       E                     dE             d eps       ncg     rms          rms(c)
DAV:   1    -0.226510314204E+03    0.78234E-07   -0.14514E-05 14632   0.154E-02    0.101E-03
RMM:   2    -0.226510314252E+03   -0.47479E-07   -0.38420E-07  7137   0.239E-03    0.382E-04
RMM:   3    -0.226510314260E+03   -0.86062E-08   -0.10329E-08  2109   0.680E-04    0.274E-04
RMM:   4    -0.226510314263E+03   -0.21836E-08   -0.18426E-10   791   0.557E-04
   9 F= -.22651031E+03 E0= -.22651031E+03  d E =-.118368E-04
       N       E                     dE             d eps       ncg     rms          rms(c)
DAV:   1    -0.226510314265E+03   -0.43317E-08   -0.78113E-07  8032   0.357E-03    0.162E-04
RMM:   2    -0.226510314269E+03   -0.42246E-08   -0.40716E-08  4996   0.971E-04    0.886E-05
RMM:   3    -0.226510314270E+03   -0.12664E-08   -0.15858E-10   449   0.419E-04    0.941E-05
RMM:   4    -0.226510314271E+03   -0.33992E-09   -0.86759E-11   400   0.418E-04
  10 F= -.22651031E+03 E0= -.22651031E+03  d E =-.118448E-04
       N       E                     dE             d eps       ncg     rms          rms(c)
DAV:   1    -0.226510314269E+03    0.12878E-08   -0.18955E-07  8328   0.178E-03    0.113E-04
RMM:   2    -0.226510314268E+03    0.13073E-08    0.00000E+00   484   0.433E-04    0.671E-05
RMM:   3    -0.226510314265E+03    0.25577E-08    0.00000E+00   290   0.453E-04    0.451E-05
RMM:   4    -0.226510314264E+03    0.15482E-08    0.00000E+00   260   0.453E-04
  11 F= -.22651031E+03 E0= -.22651031E+03  d E =-.118377E-04
       N       E                     dE             d eps       ncg     rms          rms(c)
DAV:   1    -0.226510314265E+03    0.10687E-09   -0.86574E-08  7608   0.113E-03    0.924E-05
RMM:   2    -0.226510314268E+03   -0.32335E-08    0.00000E+00   319   0.307E-04    0.505E-05
RMM:   3    -0.226510314265E+03    0.33359E-08    0.00000E+00   220   0.307E-04    0.362E-05
RMM:   4    -0.226510314265E+03   -0.59967E-09    0.00000E+00   195   0.308E-04
  12 F= -.22651031E+03 E0= -.22651031E+03  d E =-.118397E-04
       N       E                     dE             d eps       ncg     rms          rms(c)
DAV:   1    -0.226510314265E+03   -0.51079E-09   -0.18233E-08  7912   0.506E-04    0.609E-05
RMM:   2    -0.226510314265E+03    0.21925E-09    0.00000E+00   289   0.150E-04    0.381E-05
RMM:   3    -0.226510314265E+03    0.38028E-10    0.00000E+00   201   0.150E-04    0.359E-05
RMM:   4    -0.226510314265E+03    0.87368E-10    0.00000E+00   174   0.147E-04
  13 F= -.22651031E+03 E0= -.22651031E+03  d E =-.118392E-04
       N       E                     dE             d eps       ncg     rms          rms(c)
DAV:   1    -0.226510314265E+03   -0.16840E-09   -0.67328E-09  7568   0.318E-04    0.453E-05
RMM:   2    -0.226510314266E+03   -0.54212E-09    0.00000E+00   206   0.105E-04    0.318E-05
RMM:   3    -0.226510314266E+03    0.29416E-10    0.00000E+00   155   0.106E-04    0.318E-05
RMM:   4    -0.226510314266E+03    0.14413E-09    0.00000E+00   137   0.105E-04
  14 F= -.22651031E+03 E0= -.22651031E+03  d E =-.118399E-04
       N       E                     dE             d eps       ncg     rms          rms(c)
DAV:   1    -0.226510314636E+03   -0.37066E-06   -0.47284E-05 13296   0.275E-02    0.120E-03
RMM:   2    -0.226510314757E+03   -0.12015E-06   -0.15783E-06  7101   0.485E-03    0.231E-03
RMM:   3    -0.226510314780E+03   -0.23366E-07   -0.73532E-07  6911   0.299E-03    0.194E-03
RMM:   4    -0.226510314742E+03    0.38278E-07   -0.11364E-07  6640   0.116E-03
  15 F= -.22651031E+03 E0= -.22651031E+03  d E =-.476037E-06
       N       E                     dE             d eps       ncg     rms          rms(c)
DAV:   1    -0.226510314730E+03    0.50404E-07   -0.12388E-06  8256   0.471E-03    0.240E-04
RMM:   2    -0.226510314732E+03   -0.25499E-08   -0.95073E-08  6850   0.136E-03    0.201E-04
RMM:   3    -0.226510314733E+03   -0.13584E-08    0.00000E+00   925   0.374E-04    0.107E-04
RMM:   4    -0.226510314739E+03   -0.56379E-08    0.00000E+00   811   0.479E-04
  16 F= -.22651031E+03 E0= -.22651031E+03  d E =-.473456E-06
       N       E                     dE             d eps       ncg     rms          rms(c)
DAV:   1    -0.226510314737E+03   -0.37093E-08   -0.35936E-08  7752   0.794E-04    0.129E-04
RMM:   2    -0.226510314738E+03   -0.44693E-09    0.00000E+00   934   0.232E-04    0.726E-05
RMM:   3    -0.226510314735E+03    0.22749E-08    0.00000E+00   195   0.275E-04    0.450E-05
RMM:   4    -0.226510314735E+03    0.58458E-09    0.00000E+00   125   0.273E-04
  17 F= -.22651031E+03 E0= -.22651031E+03  d E =-.469115E-06
       N       E                     dE             d eps       ncg     rms          rms(c)
DAV:   1    -0.226510314737E+03   -0.19577E-08   -0.23224E-08  7592   0.589E-04    0.846E-05
RMM:   2    -0.226510314738E+03   -0.54450E-09    0.00000E+00   510   0.179E-04    0.442E-05
RMM:   3    -0.226510314738E+03    0.35607E-09    0.00000E+00   125   0.185E-04    0.369E-05
RMM:   4    -0.226510314737E+03    0.17167E-10    0.00000E+00   107   0.183E-04
  18 F= -.22651031E+03 E0= -.22651031E+03  d E =-.471829E-06
       N       E                     dE             d eps       ncg     rms          rms(c)
DAV:   1    -0.226510314738E+03   -0.91785E-09   -0.34782E-09  7552   0.247E-04    0.542E-05
RMM:   2    -0.226510314738E+03    0.23007E-09    0.00000E+00   436   0.959E-05    0.330E-05
RMM:   3    -0.226510314738E+03   -0.59174E-10    0.00000E+00   111   0.101E-04    0.323E-05
RMM:   4    -0.226510314738E+03   -0.12088E-09    0.00000E+00    96   0.939E-05
  19 F= -.22651031E+03 E0= -.22651031E+03  d E =-.472714E-06
       N       E                     dE             d eps       ncg     rms          rms(c)
DAV:   1    -0.226510314739E+03   -0.36013E-09   -0.95619E-10  7432   0.106E-04    0.450E-05
RMM:   2    -0.226510314738E+03    0.14023E-09    0.00000E+00   149   0.644E-05    0.317E-05
RMM:   3    -0.226510314738E+03    0.62528E-10    0.00000E+00    97   0.633E-05    0.317E-05
RMM:   4    -0.226510314738E+03   -0.20748E-10    0.00000E+00    85   0.618E-05
  20 F= -.22651031E+03 E0= -.22651031E+03  d E =-.472771E-06
       N       E                     dE             d eps       ncg     rms          rms(c)
DAV:   1    -0.226510314738E+03   -0.85521E-10   -0.37956E-10  7360   0.652E-05    0.382E-05
RMM:   2    -0.226510314738E+03    0.44054E-11    0.00000E+00   135   0.419E-05    0.317E-05
RMM:   3    -0.226510314738E+03    0.68212E-12    0.00000E+00    86   0.399E-05    0.316E-05
RMM:   4    -0.226510314738E+03    0.24045E-10    0.00000E+00    80   0.386E-05
  21 F= -.22651031E+03 E0= -.22651031E+03  d E =-.472806E-06
       N       E                     dE             d eps       ncg     rms          rms(c)
DAV:   1    -0.226510314738E+03    0.30809E-10   -0.15377E-10  7368   0.401E-05    0.343E-05
RMM:   2    -0.226510314738E+03    0.65654E-10    0.00000E+00   117   0.246E-05    0.316E-05
RMM:   3    -0.226510314738E+03    0.16826E-10    0.00000E+00    81   0.246E-05    0.316E-05
RMM:   4    -0.226510314738E+03   -0.95497E-11    0.00000E+00    76   0.245E-05
  22 F= -.22651031E+03 E0= -.22651031E+03  d E =-.472727E-06
       N       E                     dE             d eps       ncg     rms          rms(c)
DAV:   1    -0.226510314738E+03    0.32855E-10   -0.55562E-11  7264   0.240E-05    0.327E-05
RMM:   2    -0.226510314738E+03   -0.79751E-10    0.00000E+00   103   0.139E-05    0.316E-05
RMM:   3    -0.226510314738E+03   -0.19014E-10    0.00000E+00    76   0.139E-05    0.316E-05
RMM:   4    -0.226510314738E+03    0.48317E-12    0.00000E+00    71   0.139E-05
  23 F= -.22651031E+03 E0= -.22651031E+03  d E =-.472783E-06
       N       E                     dE             d eps       ncg     rms          rms(c)
DAV:   1    -0.226510314738E+03    0.36010E-10   -0.19736E-11  7288   0.142E-05    0.320E-05
RMM:   2    -0.226510314738E+03    0.74465E-11    0.00000E+00    98   0.838E-06    0.316E-05
RMM:   3    -0.226510314738E+03   -0.48885E-11    0.00000E+00    76   0.840E-06    0.316E-05
RMM:   4    -0.226510314738E+03    0.14040E-10    0.00000E+00    69   0.832E-06
  24 F= -.22651031E+03 E0= -.22651031E+03  d E =-.472730E-06
       N       E                     dE             d eps       ncg     rms          rms(c)
DAV:   1    -0.226510314738E+03   -0.41780E-10   -0.65677E-12  7240   0.813E-06    0.318E-05
RMM:   2    -0.226510314738E+03    0.22567E-10    0.00000E+00    93   0.440E-06    0.316E-05
RMM:   3    -0.226510314738E+03   -0.56275E-11    0.00000E+00    73   0.441E-06    0.316E-05
RMM:   4    -0.226510314738E+03    0.79012E-11    0.00000E+00    64   0.441E-06
  25 F= -.22651031E+03 E0= -.22651031E+03  d E =-.472761E-06
       N       E                     dE             d eps       ncg     rms          rms(c)
DAV:   1    -0.226510314739E+03   -0.81712E-10   -0.25485E-12  7280   0.457E-06    0.317E-05
RMM:   2    -0.226510314738E+03    0.10888E-09    0.00000E+00    91   0.262E-06    0.316E-05
RMM:   3    -0.226510314738E+03   -0.45475E-11    0.00000E+00    71   0.263E-06    0.316E-05
RMM:   4    -0.226510314738E+03    0.73896E-12    0.00000E+00    64   0.262E-06
  26 F= -.22651031E+03 E0= -.22651031E+03  d E =-.472746E-06
       N       E                     dE             d eps       ncg     rms          rms(c)
DAV:   1    -0.226510314738E+03   -0.75659E-10   -0.54791E-13  7216   0.251E-06    0.316E-05
RMM:   2    -0.226510314738E+03    0.30269E-10    0.00000E+00    85   0.128E-06    0.316E-05
RMM:   3    -0.226510314738E+03   -0.12506E-11    0.00000E+00    68   0.128E-06    0.316E-05
RMM:   4    -0.226510314738E+03    0.51728E-11    0.00000E+00    63   0.128E-06
  27 F= -.22651031E+03 E0= -.22651031E+03  d E =-.472788E-06
       N       E                     dE             d eps       ncg     rms          rms(c)
DAV:   1    -0.226510314738E+03    0.55991E-11   -0.23506E-13  7288   0.146E-06    0.316E-05
RMM:   2    -0.226510314738E+03    0.26205E-10    0.00000E+00    83   0.833E-07    0.316E-05
RMM:   3    -0.226510314738E+03   -0.24443E-11    0.00000E+00    67   0.833E-07    0.316E-05
RMM:   4    -0.226510314738E+03   -0.22169E-11    0.00000E+00    62   0.833E-07
  28 F= -.22651031E+03 E0= -.22651031E+03  d E =-.472766E-06
       N       E                     dE             d eps       ncg     rms          rms(c)
DAV:   1    -0.226510314738E+03    0.51216E-10   -0.51707E-14  7192   0.830E-07    0.316E-05
RMM:   2    -0.226510314738E+03   -0.41211E-10    0.00000E+00    81   0.449E-07    0.316E-05
RMM:   3    -0.226510314738E+03   -0.60822E-11    0.00000E+00    63   0.448E-07    0.316E-05
RMM:   4    -0.226510314738E+03    0.12477E-10    0.00000E+00    58   0.452E-07
  29 F= -.22651031E+03 E0= -.22651031E+03  d E =-.472748E-06
       N       E                     dE             d eps       ncg     rms          rms(c)
DAV:   1    -0.226510314125E+03    0.61304E-06   -0.62771E-05 13616   0.317E-02    0.136E-03
RMM:   2    -0.226510314265E+03   -0.14012E-06   -0.15884E-06  7626   0.486E-03    0.898E-04
RMM:   3    -0.226510314266E+03   -0.66885E-09   -0.90855E-08  6655   0.122E-03    0.160E-04
RMM:   4    -0.226510314259E+03    0.70473E-08   -0.26127E-10  1318   0.430E-04
  30 F= -.22651031E+03 E0= -.22651031E+03  d E =0.654094E-08
