AlO                                     
           1
     4.802777   -0.000000   -0.000000
    -2.401388    4.200920    0.020797
     0.000000    0.065513   13.102626
   Al   O 
  12  18
Direct configuration=     1
   0.00000000  0.00000000  0.35221672
   0.00000000  0.00000000  0.64778325
   0.00000000  0.00000000  0.14778328
   0.00000000  0.00000000  0.85221675
   0.66666669  0.33333334  0.68555007
   0.66666669  0.33333334  0.98111662
   0.66666669  0.33333334  0.48111662
   0.66666669  0.33333334  0.18555001
   0.33333334  0.66666669  0.01888338
   0.33333334  0.66666669  0.31444993
   0.33333334  0.66666669  0.81444993
   0.33333334  0.66666669  0.51888338
   0.30611761  0.00000000  0.25000000
   0.69388239  0.00000000  0.75000000
   0.00000000  0.30611761  0.25000000
   0.00000000  0.69388239  0.75000000
   0.69388239  0.69388239  0.25000000
   0.30611761  0.30611761  0.75000000
   0.97278430  0.33333334  0.58333331
   0.36054904  0.33333334  0.08333334
   0.66666669  0.63945093  0.58333331
   0.66666669  0.02721572  0.08333334
   0.36054904  0.02721572  0.58333331
   0.97278430  0.63945093  0.08333334
   0.63945093  0.66666669  0.91666669
   0.02721572  0.66666669  0.41666666
   0.33333334  0.97278430  0.91666669
   0.33333334  0.36054904  0.41666666
   0.02721572  0.36054904  0.91666669
   0.63945093  0.97278430  0.41666666
Direct configuration=     2
   0.00050476  0.00081246  0.35229683
  -0.00050476 -0.00081246  0.64770314
  -0.00030770 -0.00081246  0.14770317
   0.00030770  0.00081246  0.85229686
   0.66717145  0.33414580  0.68563017
   0.66616193  0.33252088  0.98103652
   0.66635899  0.33252088  0.48103652
   0.66697439  0.33414580  0.18563011
   0.33383810  0.66747915  0.01896348
   0.33282858  0.66585423  0.31436983
   0.33302564  0.66585423  0.81436983
   0.33364104  0.66747915  0.51896348
   0.30592658  0.00000000  0.25000000
   0.69407342  0.00000000  0.75000000
   0.00014836  0.30609103  0.25009102
  -0.00014836  0.69390897  0.74990898
   0.69405733  0.69390897  0.24990898
   0.30594267  0.30609103  0.75009102
   0.97259326  0.33333334  0.58333331
   0.36074008  0.33333334  0.08333334
   0.66681505  0.63942435  0.58342433
   0.66651833  0.02724230  0.08324232
   0.36072398  0.02724230  0.58324230
   0.97260936  0.63942435  0.08342435
   0.63925989  0.66666669  0.91666669
   0.02740676  0.66666669  0.41666666
   0.33348170  0.97275772  0.91675770
   0.33318498  0.36057562  0.41657564
   0.02739066  0.36057562  0.91657567
   0.63927599  0.97275772  0.41675767
Direct configuration=     3
   0.00083440  0.00134305  0.35234914
  -0.00083440 -0.00134305  0.64765083
  -0.00050865 -0.00134305  0.14765086
   0.00050865  0.00134305  0.85234917
   0.66750109  0.33467640  0.68568248
   0.66583228  0.33199029  0.98098421
   0.66615804  0.33199029  0.48098421
   0.66717534  0.33467640  0.18568242
   0.33416775  0.66800974  0.01901579
   0.33249894  0.66532363  0.31431752
   0.33282469  0.66532363  0.81431752
   0.33384199  0.66800974  0.51901579
   0.30580182  0.00000000  0.25000000
   0.69419818  0.00000000  0.75000000
   0.00024525  0.30607367  0.25015046
  -0.00024525  0.69392633  0.74984954
   0.69417157  0.69392633  0.24984954
   0.30582843  0.30607367  0.75015046
   0.97246850  0.33333334  0.58333331
   0.36086484  0.33333334  0.08333334
   0.66691193  0.63940699  0.58348377
   0.66642144  0.02725966  0.08318288
   0.36083823  0.02725966  0.58318286
   0.97249511  0.63940699  0.08348379
   0.63913513  0.66666669  0.91666669
   0.02753152  0.66666669  0.41666666
   0.33357859  0.97274036  0.91681714
   0.33308810  0.36059298  0.41651620
   0.02750491  0.36059298  0.91651623
   0.63916174  0.97274036  0.41681711
Direct configuration=     4
   0.00099452  0.00147602  0.35239592
  -0.00099452 -0.00147602  0.64760405
  -0.00048151 -0.00147602  0.14760408
   0.00048151  0.00147602  0.85239595
   0.66766120  0.33480937  0.68572926
   0.66567217  0.33185732  0.98093743
   0.66618518  0.33185732  0.48093743
   0.66714819  0.33480937  0.18572920
   0.33432786  0.66814271  0.01906257
   0.33233883  0.66519066  0.31427074
   0.33285184  0.66519066  0.81427074
   0.33381485  0.66814271  0.51906257
   0.30592651  0.00000000  0.25000000
   0.69407349  0.00000000  0.75000000
  -0.00001428  0.30586973  0.25014377
   0.00001428  0.69413027  0.74985623
   0.69411599  0.69413027  0.24985623
   0.30588401  0.30586973  0.75014377
   0.97259319  0.33333334  0.58333331
   0.36074015  0.33333334  0.08333334
   0.66665241  0.63920304  0.58347708
   0.66668097  0.02746361  0.08318957
   0.36078265  0.02746361  0.58318955
   0.97255069  0.63920304  0.08347710
   0.63925982  0.66666669  0.91666669
   0.02740683  0.66666669  0.41666666
   0.33331906  0.97253641  0.91681045
   0.33334762  0.36079693  0.41652289
   0.02744933  0.36079693  0.91652292
   0.63921732  0.97253641  0.41681042
Direct configuration=     5
   0.00107741  0.00154487  0.35242014
  -0.00107741 -0.00154487  0.64757983
  -0.00046745 -0.00154487  0.14757986
   0.00046745  0.00154487  0.85242017
   0.66774410  0.33487821  0.68575348
   0.66558927  0.33178847  0.98091321
   0.66619923  0.33178847  0.48091321
   0.66713414  0.33487821  0.18575342
   0.33441076  0.66821156  0.01908679
   0.33225593  0.66512182  0.31424652
   0.33286589  0.66512182  0.81424652
   0.33380080  0.66821156  0.51908679
   0.30599106  0.00000000  0.25000000
   0.69400894  0.00000000  0.75000000
  -0.00014865  0.30576413  0.25014030
   0.00014865  0.69423587  0.74985970
   0.69408722  0.69423587  0.24985970
   0.30591278  0.30576413  0.75014030
   0.97265775  0.33333334  0.58333331
   0.36067559  0.33333334  0.08333334
   0.66651804  0.63909745  0.58347362
   0.66681534  0.02756920  0.08319303
   0.36075387  0.02756920  0.58319301
   0.97257947  0.63909745  0.08347364
   0.63932438  0.66666669  0.91666669
   0.02734227  0.66666669  0.41666666
   0.33318469  0.97243082  0.91680699
   0.33348199  0.36090253  0.41652635
   0.02742055  0.36090253  0.91652638
   0.63924610  0.97243082  0.41680696
Direct configuration=     6
   0.00107873  0.00152249  0.35242345
  -0.00107873 -0.00152249  0.64757652
  -0.00044377 -0.00152249  0.14757655
   0.00044377  0.00152249  0.85242348
   0.66774541  0.33485584  0.68575679
   0.66558796  0.33181085  0.98090990
   0.66622292  0.33181085  0.48090990
   0.66711045  0.33485584  0.18575673
   0.33441207  0.66818918  0.01909010
   0.33225462  0.66514419  0.31424321
   0.33288958  0.66514419  0.81424321
   0.33377711  0.66818918  0.51909010
   0.30599653  0.00000000  0.25000000
   0.69400347  0.00000000  0.75000000
  -0.00019642  0.30574522  0.25016969
   0.00019642  0.69425478  0.74983031
   0.69405837  0.69425478  0.24983031
   0.30594163  0.30574522  0.75016969
   0.97266322  0.33333334  0.58333331
   0.36067012  0.33333334  0.08333334
   0.66647027  0.63907853  0.58350301
   0.66686310  0.02758812  0.08316364
   0.36072502  0.02758812  0.58316362
   0.97260832  0.63907853  0.08350303
   0.63932985  0.66666669  0.91666669
   0.02733680  0.66666669  0.41666666
   0.33313693  0.97241191  0.91683638
   0.33352976  0.36092144  0.41649696
   0.02739170  0.36092144  0.91649699
   0.63927495  0.97241191  0.41683635
Direct configuration=     7
   0.00108086  0.00148613  0.35242883
  -0.00108086 -0.00148613  0.64757114
  -0.00040527 -0.00148613  0.14757117
   0.00040527  0.00148613  0.85242886
   0.66774755  0.33481947  0.68576217
   0.66558583  0.33184721  0.98090452
   0.66626142  0.33184721  0.48090452
   0.66707196  0.33481947  0.18576211
   0.33441420  0.66815282  0.01909548
   0.33225248  0.66518056  0.31423783
   0.33292807  0.66518056  0.81423783
   0.33373861  0.66815282  0.51909548
   0.30600542  0.00000000  0.25000000
   0.69399458  0.00000000  0.75000000
  -0.00027404  0.30571448  0.25021746
   0.00027404  0.69428552  0.74978254
   0.69401148  0.69428552  0.24978254
   0.30598852  0.30571448  0.75021746
   0.97267211  0.33333334  0.58333331
   0.36066123  0.33333334  0.08333334
   0.66639265  0.63904780  0.58355077
   0.66694073  0.02761885  0.08311588
   0.36067814  0.02761885  0.58311586
   0.97265521  0.63904780  0.08355079
   0.63933874  0.66666669  0.91666669
   0.02732791  0.66666669  0.41666666
   0.33305930  0.97238117  0.91688414
   0.33360738  0.36095217  0.41644920
   0.02734481  0.36095217  0.91644923
   0.63932184  0.97238117  0.41688411
Direct configuration=     8
   0.00104133  0.00150169  0.35242396
  -0.00104133 -0.00150169  0.64757601
  -0.00046036 -0.00150169  0.14757604
   0.00046036  0.00150169  0.85242399
   0.66770802  0.33483503  0.68575731
   0.66562536  0.33183166  0.98090938
   0.66620633  0.33183166  0.48090938
   0.66712704  0.33483503  0.18575725
   0.33437467  0.66816837  0.01909062
   0.33229201  0.66516500  0.31424269
   0.33287299  0.66516500  0.81424269
   0.33379370  0.66816837  0.51909062
   0.30598863  0.00000000  0.25000000
   0.69401137  0.00000000  0.75000000
  -0.00032319  0.30569138  0.25023021
   0.00032319  0.69430862  0.74976979
   0.69398543  0.69430862  0.24976979
   0.30601457  0.30569138  0.75023021
   0.97265532  0.33333334  0.58333331
   0.36067803  0.33333334  0.08333334
   0.66634349  0.63902469  0.58356352
   0.66698988  0.02764196  0.08310313
   0.36065209  0.02764196  0.58310311
   0.97268126  0.63902469  0.08356354
   0.63932195  0.66666669  0.91666669
   0.02734470  0.66666669  0.41666666
   0.33301015  0.97235806  0.91689689
   0.33365654  0.36097528  0.41643645
   0.02731876  0.36097528  0.91643648
   0.63934788  0.97235806  0.41689686
Direct configuration=     9
   0.00104335  0.00150089  0.35242421
  -0.00104335 -0.00150089  0.64757576
  -0.00045754 -0.00150089  0.14757579
   0.00045754  0.00150089  0.85242424
   0.66771003  0.33483423  0.68575756
   0.66562334  0.33183245  0.98090913
   0.66620914  0.33183245  0.48090913
   0.66712423  0.33483423  0.18575750
   0.33437669  0.66816758  0.01909087
   0.33229000  0.66516580  0.31424244
   0.33287580  0.66516580  0.81424244
   0.33379089  0.66816758  0.51909087
   0.30598949  0.00000000  0.25000000
   0.69401051  0.00000000  0.75000000
  -0.00032068  0.30569256  0.25022956
   0.00032068  0.69430744  0.74977044
   0.69398676  0.69430744  0.24977044
   0.30601324  0.30569256  0.75022956
   0.97265618  0.33333334  0.58333331
   0.36067717  0.33333334  0.08333334
   0.66634600  0.63902587  0.58356287
   0.66698737  0.02764078  0.08310378
   0.36065342  0.02764078  0.58310376
   0.97267993  0.63902587  0.08356289
   0.63932280  0.66666669  0.91666669
   0.02734384  0.66666669  0.41666666
   0.33301266  0.97235924  0.91689624
   0.33365403  0.36097410  0.41643710
   0.02732009  0.36097410  0.91643713
   0.63934655  0.97235924  0.41689621
Direct configuration=    10
   0.00104383  0.00150070  0.35242427
  -0.00104383 -0.00150070  0.64757570
  -0.00045687 -0.00150070  0.14757573
   0.00045687  0.00150070  0.85242430
   0.66771052  0.33483404  0.68575762
   0.66562285  0.33183264  0.98090907
   0.66620982  0.33183264  0.48090907
   0.66712355  0.33483404  0.18575756
   0.33437718  0.66816739  0.01909093
   0.33228951  0.66516599  0.31424238
   0.33287648  0.66516599  0.81424238
   0.33379021  0.66816739  0.51909093
   0.30598970  0.00000000  0.25000000
   0.69401030  0.00000000  0.75000000
  -0.00032008  0.30569284  0.25022940
   0.00032008  0.69430716  0.74977060
   0.69398708  0.69430716  0.24977060
   0.30601292  0.30569284  0.75022940
   0.97265638  0.33333334  0.58333331
   0.36067696  0.33333334  0.08333334
   0.66634661  0.63902615  0.58356271
   0.66698677  0.02764049  0.08310394
   0.36065374  0.02764049  0.58310391
   0.97267961  0.63902615  0.08356273
   0.63932301  0.66666669  0.91666669
   0.02734364  0.66666669  0.41666666
   0.33301326  0.97235953  0.91689609
   0.33365342  0.36097382  0.41643726
   0.02732041  0.36097382  0.91643729
   0.63934623  0.97235953  0.41689606
Direct configuration=    11
   0.00104358  0.00150080  0.35242424
  -0.00104358 -0.00150080  0.64757573
  -0.00045722 -0.00150080  0.14757576
   0.00045722  0.00150080  0.85242427
   0.66771027  0.33483414  0.68575758
   0.66562311  0.33183254  0.98090910
   0.66620947  0.33183254  0.48090910
   0.66712391  0.33483414  0.18575752
   0.33437692  0.66816749  0.01909090
   0.33228976  0.66516589  0.31424242
   0.33287612  0.66516589  0.81424242
   0.33379056  0.66816749  0.51909090
   0.30598959  0.00000000  0.25000000
   0.69401041  0.00000000  0.75000000
  -0.00032040  0.30569269  0.25022948
   0.00032040  0.69430731  0.74977052
   0.69398691  0.69430731  0.24977052
   0.30601309  0.30569269  0.75022948
   0.97265627  0.33333334  0.58333331
   0.36067707  0.33333334  0.08333334
   0.66634629  0.63902601  0.58356279
   0.66698708  0.02764064  0.08310386
   0.36065357  0.02764064  0.58310383
   0.97267977  0.63902601  0.08356282
   0.63932290  0.66666669  0.91666669
   0.02734375  0.66666669  0.41666666
   0.33301295  0.97235938  0.91689617
   0.33365374  0.36097397  0.41643718
   0.02732025  0.36097397  0.91643721
   0.63934640  0.97235938  0.41689614
Direct configuration=    12
   0.00104375  0.00150073  0.35242426
  -0.00104375 -0.00150073  0.64757571
  -0.00045698 -0.00150073  0.14757574
   0.00045698  0.00150073  0.85242429
   0.66771044  0.33483408  0.68575760
   0.66562294  0.33183261  0.98090908
   0.66620970  0.33183261  0.48090908
   0.66712367  0.33483408  0.18575755
   0.33437709  0.66816742  0.01909092
   0.33228959  0.66516595  0.31424240
   0.33287636  0.66516595  0.81424240
   0.33379033  0.66816742  0.51909092
   0.30598966  0.00000000  0.25000000
   0.69401034  0.00000000  0.75000000
  -0.00032018  0.30569279  0.25022943
   0.00032018  0.69430721  0.74977057
   0.69398702  0.69430721  0.24977057
   0.30601298  0.30569279  0.75022943
   0.97265635  0.33333334  0.58333331
   0.36067700  0.33333334  0.08333334
   0.66634650  0.63902610  0.58356274
   0.66698687  0.02764054  0.08310391
   0.36065368  0.02764054  0.58310389
   0.97267966  0.63902610  0.08356276
   0.63932297  0.66666669  0.91666669
   0.02734367  0.66666669  0.41666666
   0.33301316  0.97235948  0.91689611
   0.33365353  0.36097387  0.41643723
   0.02732036  0.36097387  0.91643726
   0.63934629  0.97235948  0.41689608
Direct configuration=    13
   0.00104366  0.00150077  0.35242425
  -0.00104366 -0.00150077  0.64757572
  -0.00045710 -0.00150077  0.14757575
   0.00045710  0.00150077  0.85242428
   0.66771035  0.33483411  0.68575759
   0.66562302  0.33183258  0.98090909
   0.66620958  0.33183258  0.48090909
   0.66712379  0.33483411  0.18575754
   0.33437701  0.66816745  0.01909091
   0.33228968  0.66516592  0.31424241
   0.33287624  0.66516592  0.81424241
   0.33379045  0.66816745  0.51909091
   0.30598962  0.00000000  0.25000000
   0.69401038  0.00000000  0.75000000
  -0.00032029  0.30569274  0.25022945
   0.00032029  0.69430726  0.74977055
   0.69398697  0.69430726  0.24977055
   0.30601303  0.30569274  0.75022945
   0.97265631  0.33333334  0.58333331
   0.36067703  0.33333334  0.08333334
   0.66634640  0.63902606  0.58356277
   0.66698698  0.02764059  0.08310388
   0.36065363  0.02764059  0.58310386
   0.97267972  0.63902606  0.08356279
   0.63932294  0.66666669  0.91666669
   0.02734371  0.66666669  0.41666666
   0.33301305  0.97235943  0.91689614
   0.33365363  0.36097392  0.41643720
   0.02732030  0.36097392  0.91643723
   0.63934635  0.97235943  0.41689611
Direct configuration=    14
   0.00104372  0.00150075  0.35242426
  -0.00104372 -0.00150075  0.64757571
  -0.00045703 -0.00150075  0.14757574
   0.00045703  0.00150075  0.85242429
   0.66771041  0.33483409  0.68575760
   0.66562297  0.33183260  0.98090908
   0.66620966  0.33183260  0.48090908
   0.66712371  0.33483409  0.18575754
   0.33437706  0.66816743  0.01909092
   0.33228962  0.66516594  0.31424240
   0.33287632  0.66516594  0.81424240
   0.33379037  0.66816743  0.51909092
   0.30598965  0.00000000  0.25000000
   0.69401035  0.00000000  0.75000000
  -0.00032022  0.30569277  0.25022944
   0.00032022  0.69430723  0.74977056
   0.69398700  0.69430723  0.24977056
   0.30601300  0.30569277  0.75022944
   0.97265633  0.33333334  0.58333331
   0.36067701  0.33333334  0.08333334
   0.66634646  0.63902609  0.58356275
   0.66698691  0.02764056  0.08310390
   0.36065366  0.02764056  0.58310388
   0.97267968  0.63902609  0.08356277
   0.63932296  0.66666669  0.91666669
   0.02734369  0.66666669  0.41666666
   0.33301312  0.97235946  0.91689612
   0.33365357  0.36097388  0.41643722
   0.02732034  0.36097388  0.91643725
   0.63934631  0.97235946  0.41689609
Direct configuration=    15
   0.00105080  0.00150566  0.35242139
  -0.00105080 -0.00150566  0.64757858
  -0.00045486 -0.00150566  0.14757861
   0.00045486  0.00150566  0.85242142
   0.66771748  0.33483900  0.68575474
   0.66561589  0.33182769  0.98091195
   0.66621183  0.33182769  0.48091195
   0.66712155  0.33483900  0.18575468
   0.33438414  0.66817234  0.01908805
   0.33228255  0.66516103  0.31424526
   0.33287848  0.66516103  0.81424526
   0.33378820  0.66817234  0.51908805
   0.30598756  0.00000000  0.25000000
   0.69401244  0.00000000  0.75000000
  -0.00032550  0.30568867  0.25022991
   0.00032550  0.69431133  0.74977009
   0.69398583  0.69431133  0.24977009
   0.30601417  0.30568867  0.75022991
   0.97265425  0.33333334  0.58333331
   0.36067910  0.33333334  0.08333334
   0.66634119  0.63902199  0.58356322
   0.66699218  0.02764466  0.08310343
   0.36065249  0.02764466  0.58310341
   0.97268086  0.63902199  0.08356324
   0.63932087  0.66666669  0.91666669
   0.02734578  0.66666669  0.41666666
   0.33300785  0.97235536  0.91689659
   0.33365884  0.36097798  0.41643675
   0.02731916  0.36097798  0.91643678
   0.63934748  0.97235536  0.41689656
Direct configuration=    16
   0.00105186  0.00150639  0.35242096
  -0.00105186 -0.00150639  0.64757901
  -0.00045454 -0.00150639  0.14757904
   0.00045454  0.00150639  0.85242099
   0.66771854  0.33483973  0.68575431
   0.66561483  0.33182695  0.98091238
   0.66621215  0.33182695  0.48091238
   0.66712122  0.33483973  0.18575425
   0.33438520  0.66817308  0.01908762
   0.33228149  0.66516030  0.31424569
   0.33287881  0.66516030  0.81424569
   0.33378788  0.66817308  0.51908762
   0.30598725  0.00000000  0.25000000
   0.69401275  0.00000000  0.75000000
  -0.00032629  0.30568806  0.25022998
   0.00032629  0.69431194  0.74977002
   0.69398565  0.69431194  0.24977002
   0.30601435  0.30568806  0.75022998
   0.97265393  0.33333334  0.58333331
   0.36067941  0.33333334  0.08333334
   0.66634040  0.63902137  0.58356329
   0.66699297  0.02764527  0.08310336
   0.36065231  0.02764527  0.58310333
   0.97268103  0.63902137  0.08356331
   0.63932056  0.66666669  0.91666669
   0.02734609  0.66666669  0.41666666
   0.33300706  0.97235475  0.91689667
   0.33365963  0.36097860  0.41643668
   0.02731899  0.36097860  0.91643671
   0.63934766  0.97235475  0.41689664
Direct configuration=    17
   0.00105166  0.00150626  0.35242104
  -0.00105166 -0.00150626  0.64757893
  -0.00045459 -0.00150626  0.14757896
   0.00045459  0.00150626  0.85242107
   0.66771835  0.33483960  0.68575438
   0.66561503  0.33182709  0.98091230
   0.66621209  0.33182709  0.48091230
   0.66712128  0.33483960  0.18575433
   0.33438500  0.66817294  0.01908770
   0.33228168  0.66516043  0.31424562
   0.33287875  0.66516043  0.81424562
   0.33378794  0.66817294  0.51908770
   0.30598730  0.00000000  0.25000000
   0.69401270  0.00000000  0.75000000
  -0.00032614  0.30568817  0.25022997
   0.00032614  0.69431183  0.74977003
   0.69398569  0.69431183  0.24977003
   0.30601431  0.30568817  0.75022997
   0.97265399  0.33333334  0.58333331
   0.36067935  0.33333334  0.08333334
   0.66634055  0.63902149  0.58356328
   0.66699283  0.02764516  0.08310337
   0.36065234  0.02764516  0.58310335
   0.97268100  0.63902149  0.08356330
   0.63932062  0.66666669  0.91666669
   0.02734603  0.66666669  0.41666666
   0.33300720  0.97235486  0.91689665
   0.33365948  0.36097848  0.41643669
   0.02731902  0.36097848  0.91643672
   0.63934763  0.97235486  0.41689662
Direct configuration=    18
   0.00105181  0.00150636  0.35242098
  -0.00105181 -0.00150636  0.64757899
  -0.00045455 -0.00150636  0.14757902
   0.00045455  0.00150636  0.85242101
   0.66771849  0.33483970  0.68575433
   0.66561488  0.33182699  0.98091236
   0.66621214  0.33182699  0.48091236
   0.66712124  0.33483970  0.18575427
   0.33438515  0.66817304  0.01908764
   0.33228154  0.66516033  0.31424567
   0.33287879  0.66516033  0.81424567
   0.33378789  0.66817304  0.51908764
   0.30598726  0.00000000  0.25000000
   0.69401274  0.00000000  0.75000000
  -0.00032625  0.30568809  0.25022998
   0.00032625  0.69431191  0.74977002
   0.69398566  0.69431191  0.24977002
   0.30601434  0.30568809  0.75022998
   0.97265395  0.33333334  0.58333331
   0.36067940  0.33333334  0.08333334
   0.66634044  0.63902140  0.58356329
   0.66699294  0.02764525  0.08310336
   0.36065232  0.02764525  0.58310334
   0.97268102  0.63902140  0.08356331
   0.63932057  0.66666669  0.91666669
   0.02734607  0.66666669  0.41666666
   0.33300709  0.97235477  0.91689666
   0.33365959  0.36097857  0.41643668
   0.02731900  0.36097857  0.91643671
   0.63934765  0.97235477  0.41689663
Direct configuration=    19
   0.00105184  0.00150638  0.35242097
  -0.00105184 -0.00150638  0.64757900
  -0.00045454 -0.00150638  0.14757903
   0.00045454  0.00150638  0.85242100
   0.66771852  0.33483972  0.68575431
   0.66561485  0.33182696  0.98091237
   0.66621215  0.33182696  0.48091237
   0.66712123  0.33483972  0.18575425
   0.33438518  0.66817307  0.01908763
   0.33228151  0.66516031  0.31424569
   0.33287880  0.66516031  0.81424569
   0.33378788  0.66817307  0.51908763
   0.30598725  0.00000000  0.25000000
   0.69401275  0.00000000  0.75000000
  -0.00032627  0.30568807  0.25022998
   0.00032627  0.69431193  0.74977002
   0.69398566  0.69431193  0.24977002
   0.30601434  0.30568807  0.75022998
   0.97265394  0.33333334  0.58333331
   0.36067941  0.33333334  0.08333334
   0.66634041  0.63902138  0.58356329
   0.66699296  0.02764526  0.08310336
   0.36065231  0.02764526  0.58310334
   0.97268103  0.63902138  0.08356331
   0.63932056  0.66666669  0.91666669
   0.02734608  0.66666669  0.41666666
   0.33300707  0.97235476  0.91689666
   0.33365962  0.36097859  0.41643668
   0.02731899  0.36097859  0.91643671
   0.63934766  0.97235476  0.41689663
Direct configuration=    20
   0.00105185  0.00150639  0.35242096
  -0.00105185 -0.00150639  0.64757901
  -0.00045454 -0.00150639  0.14757904
   0.00045454  0.00150639  0.85242099
   0.66771854  0.33483973  0.68575431
   0.66561484  0.33182696  0.98091238
   0.66621215  0.33182696  0.48091238
   0.66712122  0.33483973  0.18575425
   0.33438519  0.66817307  0.01908762
   0.33228149  0.66516030  0.31424569
   0.33287881  0.66516030  0.81424569
   0.33378788  0.66817307  0.51908762
   0.30598725  0.00000000  0.25000000
   0.69401275  0.00000000  0.75000000
  -0.00032628  0.30568806  0.25022998
   0.00032628  0.69431194  0.74977002
   0.69398566  0.69431194  0.24977002
   0.30601434  0.30568806  0.75022998
   0.97265393  0.33333334  0.58333331
   0.36067941  0.33333334  0.08333334
   0.66634041  0.63902138  0.58356329
   0.66699297  0.02764527  0.08310336
   0.36065231  0.02764527  0.58310333
   0.97268103  0.63902138  0.08356331
   0.63932056  0.66666669  0.91666669
   0.02734609  0.66666669  0.41666666
   0.33300706  0.97235475  0.91689667
   0.33365962  0.36097859  0.41643668
   0.02731899  0.36097859  0.91643671
   0.63934766  0.97235475  0.41689664
Direct configuration=    21
   0.00105185  0.00150639  0.35242096
  -0.00105185 -0.00150639  0.64757901
  -0.00045454 -0.00150639  0.14757904
   0.00045454  0.00150639  0.85242099
   0.66771854  0.33483973  0.68575431
   0.66561483  0.33182695  0.98091238
   0.66621215  0.33182695  0.48091238
   0.66712122  0.33483973  0.18575425
   0.33438520  0.66817308  0.01908762
   0.33228149  0.66516030  0.31424569
   0.33287881  0.66516030  0.81424569
   0.33378788  0.66817308  0.51908762
   0.30598725  0.00000000  0.25000000
   0.69401275  0.00000000  0.75000000
  -0.00032628  0.30568806  0.25022998
   0.00032628  0.69431194  0.74977002
   0.69398566  0.69431194  0.24977002
   0.30601434  0.30568806  0.75022998
   0.97265393  0.33333334  0.58333331
   0.36067941  0.33333334  0.08333334
   0.66634040  0.63902137  0.58356329
   0.66699297  0.02764527  0.08310336
   0.36065231  0.02764527  0.58310333
   0.97268103  0.63902137  0.08356331
   0.63932056  0.66666669  0.91666669
   0.02734609  0.66666669  0.41666666
   0.33300706  0.97235475  0.91689667
   0.33365963  0.36097860  0.41643668
   0.02731899  0.36097860  0.91643671
   0.63934766  0.97235475  0.41689664
Direct configuration=    22
   0.00105186  0.00150639  0.35242096
  -0.00105186 -0.00150639  0.64757901
  -0.00045454 -0.00150639  0.14757904
   0.00045454  0.00150639  0.85242099
   0.66771854  0.33483973  0.68575431
   0.66561483  0.33182695  0.98091238
   0.66621215  0.33182695  0.48091238
   0.66712122  0.33483973  0.18575425
   0.33438520  0.66817308  0.01908762
   0.33228149  0.66516030  0.31424569
   0.33287881  0.66516030  0.81424569
   0.33378788  0.66817308  0.51908762
   0.30598725  0.00000000  0.25000000
   0.69401275  0.00000000  0.75000000
  -0.00032629  0.30568806  0.25022998
   0.00032629  0.69431194  0.74977002
   0.69398565  0.69431194  0.24977002
   0.30601435  0.30568806  0.75022998
   0.97265393  0.33333334  0.58333331
   0.36067941  0.33333334  0.08333334
   0.66634040  0.63902137  0.58356329
   0.66699297  0.02764527  0.08310336
   0.36065231  0.02764527  0.58310333
   0.97268103  0.63902137  0.08356331
   0.63932056  0.66666669  0.91666669
   0.02734609  0.66666669  0.41666666
   0.33300706  0.97235475  0.91689667
   0.33365963  0.36097860  0.41643668
   0.02731899  0.36097860  0.91643671
   0.63934766  0.97235475  0.41689664
Direct configuration=    23
   0.00105186  0.00150639  0.35242096
  -0.00105186 -0.00150639  0.64757901
  -0.00045454 -0.00150639  0.14757904
   0.00045454  0.00150639  0.85242099
   0.66771854  0.33483973  0.68575431
   0.66561483  0.33182695  0.98091238
   0.66621215  0.33182695  0.48091238
   0.66712122  0.33483973  0.18575425
   0.33438520  0.66817308  0.01908762
   0.33228149  0.66516030  0.31424569
   0.33287881  0.66516030  0.81424569
   0.33378788  0.66817308  0.51908762
   0.30598725  0.00000000  0.25000000
   0.69401275  0.00000000  0.75000000
  -0.00032629  0.30568806  0.25022998
   0.00032629  0.69431194  0.74977002
   0.69398565  0.69431194  0.24977002
   0.30601435  0.30568806  0.75022998
   0.97265393  0.33333334  0.58333331
   0.36067941  0.33333334  0.08333334
   0.66634040  0.63902137  0.58356329
   0.66699297  0.02764527  0.08310336
   0.36065231  0.02764527  0.58310333
   0.97268103  0.63902137  0.08356331
   0.63932056  0.66666669  0.91666669
   0.02734609  0.66666669  0.41666666
   0.33300706  0.97235475  0.91689667
   0.33365963  0.36097860  0.41643668
   0.02731899  0.36097860  0.91643671
   0.63934766  0.97235475  0.41689664
Direct configuration=    24
   0.00105186  0.00150639  0.35242096
  -0.00105186 -0.00150639  0.64757901
  -0.00045454 -0.00150639  0.14757904
   0.00045454  0.00150639  0.85242099
   0.66771854  0.33483973  0.68575431
   0.66561483  0.33182695  0.98091238
   0.66621215  0.33182695  0.48091238
   0.66712122  0.33483973  0.18575425
   0.33438520  0.66817308  0.01908762
   0.33228149  0.66516030  0.31424569
   0.33287881  0.66516030  0.81424569
   0.33378788  0.66817308  0.51908762
   0.30598725  0.00000000  0.25000000
   0.69401275  0.00000000  0.75000000
  -0.00032629  0.30568806  0.25022998
   0.00032629  0.69431194  0.74977002
   0.69398565  0.69431194  0.24977002
   0.30601435  0.30568806  0.75022998
   0.97265393  0.33333334  0.58333331
   0.36067941  0.33333334  0.08333334
   0.66634040  0.63902137  0.58356329
   0.66699297  0.02764527  0.08310336
   0.36065231  0.02764527  0.58310333
   0.97268103  0.63902137  0.08356331
   0.63932056  0.66666669  0.91666669
   0.02734609  0.66666669  0.41666666
   0.33300706  0.97235475  0.91689667
   0.33365963  0.36097860  0.41643668
   0.02731899  0.36097860  0.91643671
   0.63934766  0.97235475  0.41689664
Direct configuration=    25
   0.00105186  0.00150639  0.35242096
  -0.00105186 -0.00150639  0.64757901
  -0.00045454 -0.00150639  0.14757904
   0.00045454  0.00150639  0.85242099
   0.66771854  0.33483973  0.68575431
   0.66561483  0.33182695  0.98091238
   0.66621215  0.33182695  0.48091238
   0.66712122  0.33483973  0.18575425
   0.33438520  0.66817308  0.01908762
   0.33228149  0.66516030  0.31424569
   0.33287881  0.66516030  0.81424569
   0.33378788  0.66817308  0.51908762
   0.30598725  0.00000000  0.25000000
   0.69401275  0.00000000  0.75000000
  -0.00032629  0.30568806  0.25022998
   0.00032629  0.69431194  0.74977002
   0.69398565  0.69431194  0.24977002
   0.30601435  0.30568806  0.75022998
   0.97265393  0.33333334  0.58333331
   0.36067941  0.33333334  0.08333334
   0.66634040  0.63902137  0.58356329
   0.66699297  0.02764527  0.08310336
   0.36065231  0.02764527  0.58310333
   0.97268103  0.63902137  0.08356331
   0.63932056  0.66666669  0.91666669
   0.02734609  0.66666669  0.41666666
   0.33300706  0.97235475  0.91689667
   0.33365963  0.36097860  0.41643668
   0.02731899  0.36097860  0.91643671
   0.63934766  0.97235475  0.41689664
Direct configuration=    26
   0.00105186  0.00150639  0.35242096
  -0.00105186 -0.00150639  0.64757901
  -0.00045454 -0.00150639  0.14757904
   0.00045454  0.00150639  0.85242099
   0.66771854  0.33483973  0.68575431
   0.66561483  0.33182695  0.98091238
   0.66621215  0.33182695  0.48091238
   0.66712122  0.33483973  0.18575425
   0.33438520  0.66817308  0.01908762
   0.33228149  0.66516030  0.31424569
   0.33287881  0.66516030  0.81424569
   0.33378788  0.66817308  0.51908762
   0.30598725  0.00000000  0.25000000
   0.69401275  0.00000000  0.75000000
  -0.00032629  0.30568806  0.25022998