       N       E                     dE             d eps       ncg     rms          rms(c)
DAV:   1     0.625123168840E+02    0.62512E+02   -0.10393E+04 22792   0.955E+02
DAV:   2    -0.378770110482E+02   -0.10039E+03   -0.94082E+02 30656   0.149E+02
DAV:   3    -0.425930163467E+02   -0.47160E+01   -0.46480E+01 29534   0.311E+01
DAV:   4    -0.426805425387E+02   -0.87526E-01   -0.87304E-01 28662   0.525E+00
DAV:   5    -0.426828857922E+02   -0.23433E-02   -0.23421E-02 29052   0.749E-01    0.588E+00
RMM:   6    -0.421101831321E+02    0.57270E+00   -0.28722E-01 22792   0.211E+00    0.346E+00
RMM:   7    -0.418446795064E+02    0.26550E+00   -0.60110E-01 22792   0.308E+00    0.280E-01
RMM:   8    -0.418470360735E+02   -0.23566E-02   -0.18498E-02 22923   0.597E-01    0.336E-02
RMM:   9    -0.418472122741E+02   -0.17620E-03   -0.11737E-03 24264   0.154E-01    0.212E-02
RMM:  10    -0.418472442549E+02   -0.31981E-04   -0.99445E-05 22842   0.552E-02    0.118E-02
RMM:  11    -0.418472429165E+02    0.13384E-05   -0.12656E-05 20183   0.167E-02    0.244E-03
RMM:  12    -0.418472422595E+02    0.65699E-06   -0.78283E-07 14422   0.548E-03
   1 F= -.41847242E+02 E0= -.41847242E+02  d E =-.418472E+02
       N       E                     dE             d eps       ncg     rms          rms(c)
DAV:   1    -0.418484299096E+02   -0.11870E-02   -0.15374E-02 28630   0.620E-01    0.240E-02
RMM:   2    -0.418485099054E+02   -0.79996E-04   -0.93537E-04 22809   0.157E-01    0.237E-02
RMM:   3    -0.418485153074E+02   -0.54020E-05   -0.60161E-05 23012   0.456E-02    0.103E-02
RMM:   4    -0.418485193856E+02   -0.40782E-05   -0.72520E-06 22509   0.150E-02    0.372E-03
RMM:   5    -0.418485195410E+02   -0.15540E-06   -0.56818E-07 13304   0.407E-03
   2 F= -.41848520E+02 E0= -.41848520E+02  d E =-.127728E-02
       N       E                     dE             d eps       ncg     rms          rms(c)
DAV:   1    -0.418485905181E+02   -0.71132E-04   -0.15722E-03 27880   0.198E-01    0.771E-03
RMM:   2    -0.418485988925E+02   -0.83744E-05   -0.82801E-05 22764   0.489E-02    0.958E-04
RMM:   3    -0.418485993620E+02   -0.46950E-06   -0.44108E-06 15732   0.109E-02    0.118E-04
RMM:   4    -0.418485994248E+02   -0.62887E-07   -0.45649E-07 12030   0.425E-03
   3 F= -.41848599E+02 E0= -.41848599E+02  d E =-.135717E-02
