Si                                      
           1
     5.488798    0.027172    0.000000
     0.027172    5.434454    0.000000
     0.000000    0.000000    5.434454
   Si
   8
Direct configuration=     1
   0.00000000  0.00000000  0.00000000
   0.75000000  0.75000000  0.25000000
   0.00000000  0.50000000  0.50000000
   0.75000000  0.25000000  0.75000000
   0.50000000  0.00000000  0.50000000
   0.25000000  0.75000000  0.75000000
   0.50000000  0.50000000  0.00000000
   0.25000000  0.25000000  0.25000000
Direct configuration=     2
  -0.00000000 -0.00000000  0.00050194
   0.75000000  0.75000000  0.24949806
   0.00000000  0.50000000  0.50050194
   0.75000000  0.25000000  0.74949806
   0.50000000 -0.00000000  0.50050194
   0.25000000  0.75000000  0.74949806
   0.50000000  0.50000000  0.00050194
   0.25000000  0.25000000  0.24949806
Direct configuration=     3
  -0.00000000 -0.00000000  0.00066249
   0.75000000  0.75000000  0.24933751
   0.00000000  0.50000000  0.50066249
   0.75000000  0.25000000  0.74933751
   0.50000000 -0.00000000  0.50066249
   0.25000000  0.75000000  0.74933751
   0.50000000  0.50000000  0.00066249
   0.25000000  0.25000000  0.24933751
