       N       E                     dE             d eps       ncg     rms          rms(c)
DAV:   1     0.566971243847E+03    0.56697E+03   -0.30513E+04 31208   0.122E+03
DAV:   2    -0.634962915659E+02   -0.63047E+03   -0.60774E+03 31000   0.300E+02
DAV:   3    -0.169565712637E+03   -0.10607E+03   -0.99713E+02 43368   0.105E+02
DAV:   4    -0.174432082281E+03   -0.48664E+01   -0.48029E+01 39600   0.244E+01
DAV:   5    -0.174527161874E+03   -0.95080E-01   -0.94760E-01 39666   0.351E+00    0.193E+01
RMM:   6    -0.162927171973E+03    0.11600E+02   -0.12257E+02 31098   0.405E+01    0.528E+00
RMM:   7    -0.161387093802E+03    0.15401E+01   -0.34587E+00 31071   0.724E+00    0.322E+00
RMM:   8    -0.161377481794E+03    0.96120E-02   -0.61218E+00 31078   0.845E+00    0.269E+00
RMM:   9    -0.160993447087E+03    0.38403E+00   -0.30871E+00 31000   0.696E+00    0.754E-01
RMM:  10    -0.160962204476E+03    0.31243E-01   -0.10489E-01 31107   0.146E+00    0.285E-01
RMM:  11    -0.160959215636E+03    0.29888E-02   -0.18012E-02 31594   0.451E-01    0.104E-01
RMM:  12    -0.160959102396E+03    0.11324E-03   -0.61223E-03 31471   0.237E-01    0.303E-02
RMM:  13    -0.160959088990E+03    0.13406E-04   -0.51115E-04 31972   0.899E-02    0.351E-02
RMM:  14    -0.160959042231E+03    0.46759E-04   -0.43529E-04 31011   0.803E-02    0.605E-03
RMM:  15    -0.160959043153E+03   -0.92163E-06   -0.40142E-05 32389   0.127E-02    0.541E-03
RMM:  16    -0.160959041460E+03    0.16931E-05   -0.10061E-05 27462   0.127E-02    0.477E-04
RMM:  17    -0.160959041281E+03    0.17906E-06   -0.10582E-06 18900   0.268E-03
   1 F= -.16095904E+03 E0= -.16094957E+03  d E =-.160959E+03
       N       E                     dE             d eps       ncg     rms          rms(c)
DAV:   1    -0.160962766075E+03   -0.37246E-02   -0.12301E-01 34474   0.103E+00    0.910E-02
RMM:   2    -0.160964297159E+03   -0.15311E-02   -0.11644E-02 31096   0.386E-01    0.174E-01
RMM:   3    -0.160963286393E+03    0.10108E-02   -0.74870E-04 31154   0.852E-02    0.127E-01
RMM:   4    -0.160962675695E+03    0.61070E-03   -0.59734E-03 31036   0.271E-01    0.102E-02
RMM:   5    -0.160962759199E+03   -0.83504E-04   -0.82386E-04 35162   0.708E-02    0.400E-02
RMM:   6    -0.160962697881E+03    0.61318E-04   -0.17326E-04 31003   0.447E-02    0.167E-02
RMM:   7    -0.160962697194E+03    0.68747E-06   -0.17174E-04 31381   0.415E-02    0.387E-03
RMM:   8    -0.160962696855E+03    0.33918E-06   -0.73770E-06 24504   0.578E-03
   2 F= -.16096270E+03 E0= -.16095318E+03  d E =-.365557E-02
       N       E                     dE             d eps       ncg     rms          rms(c)
DAV:   1    -0.160963107567E+03   -0.41037E-03   -0.25319E-02 33976   0.467E-01    0.418E-02
RMM:   2    -0.160963085962E+03    0.21605E-04   -0.74444E-04 31001   0.106E-01    0.806E-03
RMM:   3    -0.160963088312E+03   -0.23496E-05   -0.41172E-05 35278   0.210E-02    0.813E-03
RMM:   4    -0.160963087807E+03    0.50495E-06   -0.19238E-06 19165   0.626E-03
   3 F= -.16096309E+03 E0= -.16095354E+03  d E =-.404653E-02
       N       E                     dE             d eps       ncg     rms          rms(c)
DAV:   1    -0.160963685141E+03   -0.59683E-03   -0.68066E-03 33928   0.264E-01    0.173E-02
RMM:   2    -0.160963717748E+03   -0.32607E-04   -0.44514E-04 31000   0.945E-02    0.125E-02
RMM:   3    -0.160963887233E+03   -0.16949E-03   -0.14513E-03 31005   0.140E-01    0.570E-02
RMM:   4    -0.160963727179E+03    0.16005E-03   -0.24691E-04 31000   0.701E-02    0.244E-02
RMM:   5    -0.160963709626E+03    0.17553E-04   -0.21856E-04 31181   0.456E-02    0.229E-03
RMM:   6    -0.160963711932E+03   -0.23063E-05   -0.24948E-05 29607   0.144E-02    0.534E-03
RMM:   7    -0.160963711577E+03    0.35542E-06   -0.91193E-07 18769   0.347E-03
   4 F= -.16096371E+03 E0= -.16095418E+03  d E =-.623770E-03
       N       E                     dE             d eps       ncg     rms          rms(c)
DAV:   1    -0.160964410565E+03   -0.69863E-03   -0.33978E-02 32958   0.591E-01    0.404E-02
RMM:   2    -0.160964523609E+03   -0.11304E-03   -0.17136E-03 31000   0.190E-01    0.746E-03
RMM:   3    -0.160964541388E+03   -0.17780E-04   -0.14071E-04 36184   0.433E-02    0.104E-02
RMM:   4    -0.160964536071E+03    0.53168E-05   -0.31848E-05 31019   0.228E-02    0.168E-03
RMM:   5    -0.160964536274E+03   -0.20263E-06   -0.42624E-06 23766   0.600E-03
   5 F= -.16096454E+03 E0= -.16095504E+03  d E =-.144847E-02
       N       E                     dE             d eps       ncg     rms          rms(c)
DAV:   1    -0.160963325015E+03    0.12111E-02   -0.13577E-01 31654   0.118E+00    0.815E-02
RMM:   2    -0.160963765256E+03   -0.44024E-03   -0.70804E-03 31000   0.387E-01    0.758E-03
RMM:   3    -0.160963821773E+03   -0.56517E-04   -0.55559E-04 35874   0.862E-02    0.462E-03
RMM:   4    -0.160963824400E+03   -0.26267E-05   -0.27675E-05 29750   0.198E-02    0.538E-03
RMM:   5    -0.160963824155E+03    0.24424E-06   -0.45456E-06 24642   0.842E-03
   6 F= -.16096382E+03 E0= -.16095442E+03  d E =-.736348E-03
       N       E                     dE             d eps       ncg     rms          rms(c)
DAV:   1    -0.160964383038E+03   -0.55864E-03   -0.72123E-02 31624   0.861E-01    0.594E-02
RMM:   2    -0.160964623956E+03   -0.24092E-03   -0.37042E-03 31000   0.281E-01    0.801E-03
RMM:   3    -0.160964653506E+03   -0.29550E-04   -0.28804E-04 35808   0.622E-02    0.800E-04
RMM:   4    -0.160964654900E+03   -0.13935E-05   -0.14415E-05 28036   0.144E-02    0.217E-04
RMM:   5    -0.160964655012E+03   -0.11200E-06   -0.13876E-06 18499   0.427E-03
   7 F= -.16096466E+03 E0= -.16095518E+03  d E =-.156720E-02
       N       E                     dE             d eps       ncg     rms          rms(c)
DAV:   1    -0.160964655005E+03   -0.10473E-06   -0.49433E-06 32514   0.767E-03    0.480E-04
RMM:   2    -0.160964654975E+03    0.29232E-07   -0.34577E-07 16598   0.277E-03    0.747E-04
RMM:   3    -0.160964654997E+03   -0.21903E-07   -0.74691E-08 15702   0.161E-03    0.416E-04
RMM:   4    -0.160964655048E+03   -0.50624E-07   -0.71689E-09  4057   0.744E-04
   8 F= -.16096466E+03 E0= -.16095518E+03  d E =-.156724E-02
       N       E                     dE             d eps       ncg     rms          rms(c)
DAV:   1    -0.160964655084E+03   -0.86920E-07   -0.94370E-07 18822   0.334E-03    0.229E-04
RMM:   2    -0.160964655127E+03   -0.43113E-07   -0.10643E-07 14660   0.124E-03    0.241E-04
RMM:   3    -0.160964655104E+03    0.22954E-07   -0.58197E-11  1686   0.628E-04    0.219E-04
RMM:   4    -0.160964655068E+03    0.35908E-07   -0.21299E-09  2251   0.625E-04
   9 F= -.16096466E+03 E0= -.16095518E+03  d E =-.156726E-02
       N       E                     dE             d eps       ncg     rms          rms(c)
DAV:   1    -0.160964655066E+03    0.38168E-07   -0.25355E-08 19190   0.671E-04    0.797E-05
RMM:   2    -0.160964655064E+03    0.22812E-08   -0.27623E-25  1410   0.239E-04    0.708E-05
RMM:   3    -0.160964655054E+03    0.98779E-08   -0.30136E-23   933   0.245E-04    0.483E-05
RMM:   4    -0.160964655056E+03   -0.16319E-08   -0.49772E-27   795   0.245E-04
  10 F= -.16096466E+03 E0= -.16095518E+03  d E =-.156725E-02
       N       E                     dE             d eps       ncg     rms          rms(c)
DAV:   1    -0.160964655056E+03   -0.18692E-08   -0.98189E-09 17828   0.331E-04    0.215E-05
RMM:   2    -0.160964655058E+03   -0.24710E-08    0.00000E+00   853   0.200E-04    0.180E-05
RMM:   3    -0.160964655053E+03    0.53212E-08   -0.23299E-28   642   0.228E-04    0.237E-05
RMM:   4    -0.160964655054E+03   -0.14222E-08    0.00000E+00   525   0.219E-04
  11 F= -.16096466E+03 E0= -.16095518E+03  d E =-.156725E-02
       N       E                     dE             d eps       ncg     rms          rms(c)
DAV:   1    -0.160964655054E+03   -0.14535E-08   -0.30360E-09 17684   0.238E-04    0.483E-05
RMM:   2    -0.160964655067E+03   -0.12516E-07    0.00000E+00   704   0.126E-04    0.567E-05
RMM:   3    -0.160964655062E+03    0.53232E-08    0.00000E+00   516   0.144E-04    0.454E-05
RMM:   4    -0.160964655060E+03    0.11943E-08    0.00000E+00   439   0.169E-04
  12 F= -.16096466E+03 E0= -.16095518E+03  d E =-.156725E-02
       N       E                     dE             d eps       ncg     rms          rms(c)
DAV:   1    -0.160964655062E+03    0.18986E-10   -0.14500E-09 17012   0.195E-04    0.139E-05
RMM:   2    -0.160964655061E+03    0.72293E-09    0.00000E+00   593   0.142E-04    0.199E-05
RMM:   3    -0.160964655060E+03    0.10637E-08    0.00000E+00   401   0.133E-04    0.163E-05
RMM:   4    -0.160964655058E+03    0.22728E-08    0.00000E+00   345   0.106E-04
  13 F= -.16096466E+03 E0= -.16095518E+03  d E =-.156725E-02
       N       E                     dE             d eps       ncg     rms          rms(c)
DAV:   1    -0.160964655057E+03    0.28942E-08   -0.84996E-10 17174   0.931E-05    0.128E-05
RMM:   2    -0.160964655061E+03   -0.40948E-08    0.00000E+00   555   0.807E-05    0.514E-06
RMM:   3    -0.160964655060E+03    0.67263E-09    0.00000E+00   354   0.777E-05    0.340E-06
RMM:   4    -0.160964655060E+03    0.41308E-09    0.00000E+00   304   0.744E-05
  14 F= -.16096466E+03 E0= -.16095518E+03  d E =-.156725E-02
       N       E                     dE             d eps       ncg     rms          rms(c)
DAV:   1    -0.160964655060E+03   -0.17792E-10   -0.23313E-10 16676   0.701E-05    0.783E-06
RMM:   2    -0.160964655061E+03   -0.76466E-09    0.00000E+00   506   0.409E-05    0.202E-06
RMM:   3    -0.160964655061E+03    0.43724E-09    0.00000E+00   302   0.446E-05    0.124E-06
RMM:   4    -0.160964655061E+03   -0.29581E-09    0.00000E+00   263   0.457E-05
  15 F= -.16096466E+03 E0= -.16095518E+03  d E =-.156725E-02
       N       E                     dE             d eps       ncg     rms          rms(c)
DAV:   1    -0.160964655062E+03   -0.79012E-09   -0.89372E-11 16736   0.459E-05    0.799E-06
RMM:   2    -0.160964655061E+03    0.96179E-10    0.00000E+00   477   0.412E-05    0.278E-06
RMM:   3    -0.160964655061E+03    0.56690E-09    0.00000E+00   278   0.487E-05    0.131E-06
RMM:   4    -0.160964655061E+03   -0.63147E-09    0.00000E+00   242   0.511E-05
  16 F= -.16096466E+03 E0= -.16095518E+03  d E =-.156725E-02
       N       E                     dE             d eps       ncg     rms          rms(c)
DAV:   1    -0.160964655061E+03    0.16087E-10   -0.86929E-11 16562   0.511E-05    0.917E-06
RMM:   2    -0.160964655061E+03   -0.60351E-09    0.00000E+00   436   0.344E-05    0.436E-06
RMM:   3    -0.160964655061E+03    0.29365E-09    0.00000E+00   250   0.440E-05    0.246E-06
RMM:   4    -0.160964655061E+03    0.51512E-09    0.00000E+00   216   0.526E-05
  17 F= -.16096466E+03 E0= -.16095518E+03  d E =-.156725E-02
       N       E                     dE             d eps       ncg     rms          rms(c)
DAV:   1    -0.160964655060E+03    0.97936E-09   -0.10288E-10 16502   0.547E-05    0.108E-05
RMM:   2    -0.160964655060E+03   -0.18167E-09    0.00000E+00   411   0.543E-05    0.212E-06
RMM:   3    -0.160964655062E+03   -0.13123E-08    0.00000E+00   224   0.594E-05    0.107E-06
RMM:   4    -0.160964655062E+03   -0.14415E-09    0.00000E+00   197   0.633E-05
  18 F= -.16096466E+03 E0= -.16095518E+03  d E =-.156725E-02
       N       E                     dE             d eps       ncg     rms          rms(c)
DAV:   1    -0.160964655061E+03    0.35868E-09   -0.14215E-10 16376   0.641E-05    0.130E-05
RMM:   2    -0.160964655060E+03    0.12845E-08    0.00000E+00   380   0.749E-05    0.433E-07
RMM:   3    -0.160964655060E+03    0.11471E-09    0.00000E+00   202   0.770E-05    0.320E-07
RMM:   4    -0.160964655060E+03   -0.36891E-09    0.00000E+00   179   0.749E-05
  19 F= -.16096466E+03 E0= -.16095518E+03  d E =-.156725E-02
       N       E                     dE             d eps       ncg     rms          rms(c)
DAV:   1    -0.160964655059E+03    0.66308E-09   -0.19813E-10 16304   0.755E-05    0.153E-05
RMM:   2    -0.160964655061E+03   -0.19737E-08    0.00000E+00   363   0.871E-05    0.259E-07
RMM:   3    -0.160964655062E+03   -0.43354E-09    0.00000E+00   184   0.877E-05    0.103E-07
RMM:   4    -0.160964655062E+03   -0.52148E-09    0.00000E+00   165   0.879E-05
  20 F= -.16096466E+03 E0= -.16095518E+03  d E =-.156726E-02
       N       E                     dE             d eps       ncg     rms          rms(c)
DAV:   1    -0.160964655063E+03   -0.98987E-09   -0.27007E-10 16268   0.880E-05    0.178E-05
RMM:   2    -0.160964655060E+03    0.28917E-08    0.00000E+00   332   0.101E-04    0.188E-07
RMM:   3    -0.160964655060E+03    0.18133E-10    0.00000E+00   171   0.102E-04    0.781E-09
RMM:   4    -0.160964655060E+03    0.13432E-09    0.00000E+00   150   0.102E-04
  21 F= -.16096466E+03 E0= -.16095518E+03  d E =-.156725E-02
       N       E                     dE             d eps       ncg     rms          rms(c)
DAV:   1    -0.160962592435E+03    0.20626E-02   -0.13522E-01 31024   0.118E+00    0.814E-02
RMM:   2    -0.160963306622E+03   -0.71419E-03   -0.10934E-02 31003   0.465E-01    0.677E-02
RMM:   3    -0.160963283314E+03    0.23307E-04   -0.45230E-03 31000   0.275E-01    0.579E-02
RMM:   4    -0.160963229170E+03    0.54144E-04   -0.31827E-03 31000   0.243E-01    0.500E-02
RMM:   5    -0.160963147756E+03    0.81414E-04   -0.17417E-03 31000   0.188E-01    0.316E-02
RMM:   6    -0.160963106174E+03    0.41582E-04   -0.62470E-04 31000   0.117E-01    0.185E-02
RMM:   7    -0.160963092236E+03    0.13938E-04   -0.17786E-04 31000   0.639E-02    0.854E-03
RMM:   8    -0.160963087997E+03    0.42396E-05   -0.35392E-05 30997   0.294E-02    0.369E-03
RMM:   9    -0.160963087785E+03    0.21137E-06   -0.68251E-06 25431   0.128E-02
  22 F= -.16096309E+03 E0= -.16095354E+03  d E =0.217105E-07
