AlO                                     
           1
     4.810753   -0.048108    0.000000
    -0.082786    8.278566    0.000000
     0.000000    0.000000    8.393946
   Ti   Si
   8  16
Direct configuration=     1
   0.00000000  0.00000000  0.00000000
   0.75000000  0.75000000  0.25000000
   0.00000000  0.50000000  0.50000000
   0.75000000  0.25000000  0.75000000
   0.50000000  0.00000000  0.50000000
   0.25000000  0.75000000  0.75000000
   0.50000000  0.50000000  0.00000000
   0.25000000  0.25000000  0.25000000
   0.00000000  0.33673444  0.00000000
   0.00000000  0.66326559  0.00000000
   0.75000000  0.08673443  0.25000000
   0.75000000  0.41326556  0.25000000
   0.00000000  0.83673441  0.50000000
   0.00000000  0.16326557  0.50000000
   0.75000000  0.58673441  0.75000000
   0.75000000  0.91326559  0.75000000
   0.50000000  0.33673444  0.50000000
   0.50000000  0.66326559  0.50000000
   0.25000000  0.08673443  0.75000000
   0.25000000  0.41326556  0.75000000
   0.50000000  0.83673441  0.00000000
   0.50000000  0.16326557  0.00000000
   0.25000000  0.58673441  0.25000000
   0.25000000  0.91326559  0.25000000
Direct configuration=     2
  -0.00000000 -0.00000000  0.00043927
   0.75000000  0.75000000  0.24956073
  -0.00000000  0.50000000  0.50043927
   0.75000000  0.25000000  0.74956073
   0.50000000 -0.00000000  0.50043927
   0.25000000  0.75000000  0.74956073
   0.50000000  0.50000000  0.00043927
   0.25000000  0.25000000  0.24956073
   0.00001991  0.33660677  0.00017484
  -0.00001991  0.66339326  0.00017484
   0.75001991  0.08660676  0.24982516
   0.74998009  0.41339323  0.24982516
   0.00001991  0.83660674  0.50017484
  -0.00001991  0.16339324  0.50017484
   0.75001991  0.58660674  0.74982516
   0.74998009  0.91339326  0.74982516
   0.50001991  0.33660677  0.50017484
   0.49998009  0.66339326  0.50017484
   0.25001991  0.08660676  0.74982516
   0.24998009  0.41339323  0.74982516
   0.50001991  0.83660674  0.00017484
   0.49998009  0.16339324  0.00017484
   0.25001991  0.58660674  0.24982516
   0.24998009  0.91339326  0.24982516
Direct configuration=     3
  -0.00000000 -0.00000000  0.00063849
   0.75000000  0.75000000  0.24936151
  -0.00000000  0.50000000  0.50063849
   0.75000000  0.25000000  0.74936151
   0.50000000 -0.00000000  0.50063849
   0.25000000  0.75000000  0.74936151
   0.50000000  0.50000000  0.00063849
   0.25000000  0.25000000  0.24936151
   0.00002894  0.33654887  0.00025413
  -0.00002894  0.66345116  0.00025413
   0.75002894  0.08654886  0.24974587
   0.74997106  0.41345113  0.24974587
   0.00002894  0.83654884  0.50025413
  -0.00002894  0.16345114  0.50025413
   0.75002894  0.58654884  0.74974587
   0.74997106  0.91345116  0.74974587
   0.50002894  0.33654887  0.50025413
   0.49997106  0.66345116  0.50025413
   0.25002894  0.08654886  0.74974587
   0.24997106  0.41345113  0.74974587
   0.50002894  0.83654884  0.00025413
   0.49997106  0.16345114  0.00025413
   0.25002894  0.58654884  0.24974587
   0.24997106  0.91345116  0.24974587
Direct configuration=     4
  -0.00000000 -0.00000000  0.00069842
   0.75000000  0.75000000  0.24930158
  -0.00000000  0.50000000  0.50069842
   0.75000000  0.25000000  0.74930158
   0.50000000 -0.00000000  0.50069842
   0.25000000  0.75000000  0.74930158
   0.50000000  0.50000000  0.00069842
   0.25000000  0.25000000  0.24930158
  -0.00007342  0.33642891  0.00020073
   0.00007342  0.66357112  0.00020073
   0.74992658  0.08642890  0.24979927
   0.75007342  0.41357109  0.24979927
  -0.00007342  0.83642888  0.50020073
   0.00007342  0.16357110  0.50020073
   0.74992658  0.58642888  0.74979927
   0.75007342  0.91357112  0.74979927
   0.49992658  0.33642891  0.50020073
   0.50007342  0.66357112  0.50020073
   0.24992658  0.08642890  0.74979927
   0.25007342  0.41357109  0.74979927
   0.49992658  0.83642888  0.00020073
   0.50007342  0.16357110  0.00020073
   0.24992658  0.58642888  0.24979927
   0.25007342  0.91357112  0.24979927
Direct configuration=     5
  -0.00000000 -0.00000000  0.00083263
   0.75000000  0.75000000  0.24916737
  -0.00000000  0.50000000  0.50083263
   0.75000000  0.25000000  0.74916737
   0.50000000 -0.00000000  0.50083263
   0.25000000  0.75000000  0.74916737
   0.50000000  0.50000000  0.00083263
   0.25000000  0.25000000  0.24916737
  -0.00030263  0.33616030  0.00008116
   0.00030263  0.66383973  0.00008116
   0.74969737  0.08616028  0.24991884
   0.75030263  0.41383970  0.24991884
  -0.00030263  0.83616027  0.50008116
   0.00030263  0.16383972  0.50008116
   0.74969737  0.58616027  0.74991884
   0.75030263  0.91383973  0.74991884
   0.49969737  0.33616030  0.50008116
   0.50030263  0.66383973  0.50008116
   0.24969737  0.08616028  0.74991884
   0.25030263  0.41383970  0.74991884
   0.49969737  0.83616027  0.00008116
   0.50030263  0.16383972  0.00008116
   0.24969737  0.58616027  0.24991884
   0.25030263  0.91383973  0.24991884
Direct configuration=     6
  -0.00000000 -0.00000000  0.00110105
   0.75000000  0.75000000  0.24889895
  -0.00000000  0.50000000  0.50110105
   0.75000000  0.25000000  0.74889895
   0.50000000 -0.00000000  0.50110105
   0.25000000  0.75000000  0.74889895
   0.50000000  0.50000000  0.00110105
   0.25000000  0.25000000  0.24889895
  -0.00076105  0.33562307 -0.00015796
   0.00076105  0.66437696 -0.00015796
   0.74923895  0.08562306  0.25015796
   0.75076105  0.41437693  0.25015796
  -0.00076105  0.83562304  0.49984204
   0.00076105  0.16437694  0.49984204
   0.74923895  0.58562304  0.75015796
   0.75076105  0.91437696  0.75015796
   0.49923895  0.33562307  0.49984204
   0.50076105  0.66437696  0.49984204
   0.24923895  0.08562306  0.75015796
   0.25076105  0.41437693  0.75015796
   0.49923895  0.83562304 -0.00015796
   0.50076105  0.16437694 -0.00015796
   0.24923895  0.58562304  0.25015796
   0.25076105  0.91437696  0.25015796
Direct configuration=     7
  -0.00000000 -0.00000000  0.00090545
   0.75000000  0.75000000  0.24909455
  -0.00000000  0.50000000  0.50090545
   0.75000000  0.25000000  0.74909455
   0.50000000 -0.00000000  0.50090545
   0.25000000  0.75000000  0.74909455
   0.50000000  0.50000000  0.00090545
   0.25000000  0.25000000  0.24909455
  -0.00042699  0.33601456  0.00001630
   0.00042699  0.66398547  0.00001630
   0.74957301  0.08601455  0.24998370
   0.75042699  0.41398544  0.24998370
  -0.00042699  0.83601453  0.50001630
   0.00042699  0.16398545  0.50001630
   0.74957301  0.58601453  0.74998370
   0.75042699  0.91398547  0.74998370
   0.49957301  0.33601456  0.50001630
   0.50042699  0.66398547  0.50001630
   0.24957301  0.08601455  0.74998370
   0.25042699  0.41398544  0.74998370
   0.49957301  0.83601453  0.00001630
   0.50042699  0.16398545  0.00001630
   0.24957301  0.58601453  0.24998370
   0.25042699  0.91398547  0.24998370
Direct configuration=     8
  -0.00000000 -0.00000000  0.00090707
   0.75000000  0.75000000  0.24909293
  -0.00000000  0.50000000  0.50090707
   0.75000000  0.25000000  0.74909293
   0.50000000 -0.00000000  0.50090707
   0.25000000  0.75000000  0.74909293
   0.50000000  0.50000000  0.00090707
   0.25000000  0.25000000  0.24909293
  -0.00042976  0.33601132  0.00001485
   0.00042976  0.66398871  0.00001485
   0.74957024  0.08601130  0.24998515
   0.75042976  0.41398868  0.24998515
  -0.00042976  0.83601129  0.50001485
   0.00042976  0.16398870  0.50001485
   0.74957024  0.58601129  0.74998515
   0.75042976  0.91398871  0.74998515
   0.49957024  0.33601132  0.50001485
   0.50042976  0.66398871  0.50001485
   0.24957024  0.08601130  0.74998515
   0.25042976  0.41398868  0.74998515
   0.49957024  0.83601129  0.00001485
   0.50042976  0.16398870  0.00001485
   0.24957024  0.58601129  0.24998515
   0.25042976  0.91398871  0.24998515
Direct configuration=     9
  -0.00000000 -0.00000000  0.00090633
   0.75000000  0.75000000  0.24909367
  -0.00000000  0.50000000  0.50090633
   0.75000000  0.25000000  0.74909367
   0.50000000 -0.00000000  0.50090633
   0.25000000  0.75000000  0.74909367
   0.50000000  0.50000000  0.00090633
   0.25000000  0.25000000  0.24909367
  -0.00042849  0.33601280  0.00001551
   0.00042849  0.66398723  0.00001551
   0.74957151  0.08601278  0.24998449
   0.75042849  0.41398720  0.24998449
  -0.00042849  0.83601277  0.50001551
   0.00042849  0.16398722  0.50001551
   0.74957151  0.58601277  0.74998449
   0.75042849  0.91398723  0.74998449
   0.49957151  0.33601280  0.50001551
   0.50042849  0.66398723  0.50001551
   0.24957151  0.08601278  0.74998449
   0.25042849  0.41398720  0.74998449
   0.49957151  0.83601277  0.00001551
   0.50042849  0.16398722  0.00001551
   0.24957151  0.58601277  0.24998449
   0.25042849  0.91398723  0.24998449
Direct configuration=    10
  -0.00000000 -0.00000000  0.00090642
   0.75000000  0.75000000  0.24909358
  -0.00000000  0.50000000  0.50090642
   0.75000000  0.25000000  0.74909358
   0.50000000 -0.00000000  0.50090642
   0.25000000  0.75000000  0.74909358
   0.50000000  0.50000000  0.00090642
   0.25000000  0.25000000  0.24909358
  -0.00042865  0.33601261  0.00001543
   0.00042865  0.66398742  0.00001543
   0.74957135  0.08601259  0.24998457
   0.75042865  0.41398739  0.24998457
  -0.00042865  0.83601258  0.50001543
   0.00042865  0.16398741  0.50001543
   0.74957135  0.58601258  0.74998457
   0.75042865  0.91398742  0.74998457
   0.49957135  0.33601261  0.50001543
   0.50042865  0.66398742  0.50001543
   0.24957135  0.08601259  0.74998457
   0.25042865  0.41398739  0.74998457
   0.49957135  0.83601258  0.00001543
   0.50042865  0.16398741  0.00001543
   0.24957135  0.58601258  0.24998457
   0.25042865  0.91398742  0.24998457
Direct configuration=    11
  -0.00000000 -0.00000000  0.00090636
   0.75000000  0.75000000  0.24909364
  -0.00000000  0.50000000  0.50090636
   0.75000000  0.25000000  0.74909364
   0.50000000 -0.00000000  0.50090636
   0.25000000  0.75000000  0.74909364
   0.50000000  0.50000000  0.00090636
   0.25000000  0.25000000  0.24909364
  -0.00042856  0.33601272  0.00001548
   0.00042856  0.66398731  0.00001548
   0.74957144  0.08601271  0.24998452
   0.75042856  0.41398728  0.24998452
  -0.00042856  0.83601269  0.50001548
   0.00042856  0.16398729  0.50001548
   0.74957144  0.58601269  0.74998452
   0.75042856  0.91398731  0.74998452
   0.49957144  0.33601272  0.50001548
   0.50042856  0.66398731  0.50001548
   0.24957144  0.08601271  0.74998452
   0.25042856  0.41398728  0.74998452
   0.49957144  0.83601269  0.00001548
   0.50042856  0.16398729  0.00001548
   0.24957144  0.58601269  0.24998452
   0.25042856  0.91398731  0.24998452
Direct configuration=    12
  -0.00000000 -0.00000000  0.00090635
   0.75000000  0.75000000  0.24909365
  -0.00000000  0.50000000  0.50090635
   0.75000000  0.25000000  0.74909365
   0.50000000 -0.00000000  0.50090635
   0.25000000  0.75000000  0.74909365
   0.50000000  0.50000000  0.00090635
   0.25000000  0.25000000  0.24909365
  -0.00042852  0.33601276  0.00001549
   0.00042852  0.66398727  0.00001549
   0.74957148  0.08601275  0.24998451
   0.75042852  0.41398724  0.24998451
  -0.00042852  0.83601273  0.50001549
   0.00042852  0.16398725  0.50001549
   0.74957148  0.58601273  0.74998451
   0.75042852  0.91398727  0.74998451
   0.49957148  0.33601276  0.50001549
   0.50042852  0.66398727  0.50001549
   0.24957148  0.08601275  0.74998451
   0.25042852  0.41398724  0.74998451
   0.49957148  0.83601273  0.00001549
   0.50042852  0.16398725  0.00001549
   0.24957148  0.58601273  0.24998451
   0.25042852  0.91398727  0.24998451
Direct configuration=    13
  -0.00000000 -0.00000000  0.00090634
   0.75000000  0.75000000  0.24909366
  -0.00000000  0.50000000  0.50090634
   0.75000000  0.25000000  0.74909366
   0.50000000 -0.00000000  0.50090634
   0.25000000  0.75000000  0.74909366
   0.50000000  0.50000000  0.00090634
   0.25000000  0.25000000  0.24909366
  -0.00042851  0.33601278  0.00001550
   0.00042851  0.66398725  0.00001550
   0.74957149  0.08601276  0.24998450
   0.75042851  0.41398722  0.24998450
  -0.00042851  0.83601275  0.50001550
   0.00042851  0.16398724  0.50001550
   0.74957149  0.58601275  0.74998450
   0.75042851  0.91398725  0.74998450
   0.49957149  0.33601278  0.50001550
   0.50042851  0.66398725  0.50001550
   0.24957149  0.08601276  0.74998450
   0.25042851  0.41398722  0.74998450
   0.49957149  0.83601275  0.00001550
   0.50042851  0.16398724  0.00001550
   0.24957149  0.58601275  0.24998450
   0.25042851  0.91398725  0.24998450
Direct configuration=    14
  -0.00000000 -0.00000000  0.00090633
   0.75000000  0.75000000  0.24909367
  -0.00000000  0.50000000  0.50090633
   0.75000000  0.25000000  0.74909367
   0.50000000 -0.00000000  0.50090633
   0.25000000  0.75000000  0.74909367
   0.50000000  0.50000000  0.00090633
   0.25000000  0.25000000  0.24909367
  -0.00042850  0.33601279  0.00001551
   0.00042850  0.66398724  0.00001551
   0.74957150  0.08601277  0.24998449
   0.75042850  0.41398721  0.24998449
  -0.00042850  0.83601276  0.50001551
   0.00042850  0.16398723  0.50001551
   0.74957150  0.58601276  0.74998449
   0.75042850  0.91398724  0.74998449
   0.49957150  0.33601279  0.50001551
   0.50042850  0.66398724  0.50001551
   0.24957150  0.08601277  0.74998449
   0.25042850  0.41398721  0.74998449
   0.49957150  0.83601276  0.00001551
   0.50042850  0.16398723  0.00001551
   0.24957150  0.58601276  0.24998449
   0.25042850  0.91398724  0.24998449
Direct configuration=    15
  -0.00000000 -0.00000000  0.00090633
   0.75000000  0.75000000  0.24909367
  -0.00000000  0.50000000  0.50090633
   0.75000000  0.25000000  0.74909367
   0.50000000 -0.00000000  0.50090633
   0.25000000  0.75000000  0.74909367
   0.50000000  0.50000000  0.00090633
   0.25000000  0.25000000  0.24909367
  -0.00042850  0.33601279  0.00001551
   0.00042850  0.66398724  0.00001551
   0.74957150  0.08601278  0.24998449
   0.75042850  0.41398721  0.24998449
  -0.00042850  0.83601276  0.50001551
   0.00042850  0.16398722  0.50001551
   0.74957150  0.58601276  0.74998449
   0.75042850  0.91398724  0.74998449
   0.49957150  0.33601279  0.50001551
   0.50042850  0.66398724  0.50001551
   0.24957150  0.08601278  0.74998449
   0.25042850  0.41398721  0.74998449
   0.49957150  0.83601276  0.00001551
   0.50042850  0.16398722  0.00001551
   0.24957150  0.58601276  0.24998449
   0.25042850  0.91398724  0.24998449
Direct configuration=    16
  -0.00000000 -0.00000000  0.00090633
   0.75000000  0.75000000  0.24909367
  -0.00000000  0.50000000  0.50090633
   0.75000000  0.25000000  0.74909367
   0.50000000 -0.00000000  0.50090633
   0.25000000  0.75000000  0.74909367
   0.50000000  0.50000000  0.00090633
   0.25000000  0.25000000  0.24909367
  -0.00042850  0.33601279  0.00001551
   0.00042850  0.66398724  0.00001551
   0.74957150  0.08601278  0.24998449
   0.75042850  0.41398721  0.24998449
  -0.00042850  0.83601276  0.50001551
   0.00042850  0.16398722  0.50001551
   0.74957150  0.58601276  0.74998449
   0.75042850  0.91398724  0.74998449
   0.49957150  0.33601279  0.50001551
   0.50042850  0.66398724  0.50001551
   0.24957150  0.08601278  0.74998449
   0.25042850  0.41398721  0.74998449
   0.49957150  0.83601276  0.00001551
   0.50042850  0.16398722  0.00001551
   0.24957150  0.58601276  0.24998449
   0.25042850  0.91398724  0.24998449
Direct configuration=    17
  -0.00000000 -0.00000000  0.00090633
   0.75000000  0.75000000  0.24909367
  -0.00000000  0.50000000  0.50090633
   0.75000000  0.25000000  0.74909367
   0.50000000 -0.00000000  0.50090633
   0.25000000  0.75000000  0.74909367
   0.50000000  0.50000000  0.00090633
   0.25000000  0.25000000  0.24909367
  -0.00042850  0.33601280  0.00001551
   0.00042850  0.66398723  0.00001551
   0.74957150  0.08601278  0.24998449
   0.75042850  0.41398720  0.24998449
  -0.00042850  0.83601277  0.50001551
   0.00042850  0.16398722  0.50001551
   0.74957150  0.58601277  0.74998449
   0.75042850  0.91398723  0.74998449
   0.49957150  0.33601280  0.50001551
   0.50042850  0.66398723  0.50001551
   0.24957150  0.08601278  0.74998449
   0.25042850  0.41398720  0.74998449
   0.49957150  0.83601277  0.00001551
   0.50042850  0.16398722  0.00001551
   0.24957150  0.58601277  0.24998449
   0.25042850  0.91398723  0.24998449
Direct configuration=    18
  -0.00000000 -0.00000000  0.00090633
   0.75000000  0.75000000  0.24909367
  -0.00000000  0.50000000  0.50090633
   0.75000000  0.25000000  0.74909367
   0.50000000 -0.00000000  0.50090633
   0.25000000  0.75000000  0.74909367
   0.50000000  0.50000000  0.00090633
   0.25000000  0.25000000  0.24909367
  -0.00042849  0.33601280  0.00001551
   0.00042849  0.66398723  0.00001551
   0.74957151  0.08601278  0.24998449
   0.75042849  0.41398720  0.24998449
  -0.00042849  0.83601277  0.50001551
   0.00042849  0.16398722  0.50001551
   0.74957151  0.58601277  0.74998449
   0.75042849  0.91398723  0.74998449
   0.49957151  0.33601280  0.50001551
   0.50042849  0.66398723  0.50001551
   0.24957151  0.08601278  0.74998449
   0.25042849  0.41398720  0.74998449
   0.49957151  0.83601277  0.00001551
   0.50042849  0.16398722  0.00001551
   0.24957151  0.58601277  0.24998449
   0.25042849  0.91398723  0.24998449
Direct configuration=    19
  -0.00000000 -0.00000000  0.00090633
   0.75000000  0.75000000  0.24909367
  -0.00000000  0.50000000  0.50090633
   0.75000000  0.25000000  0.74909367
   0.50000000 -0.00000000  0.50090633
   0.25000000  0.75000000  0.74909367
   0.50000000  0.50000000  0.00090633
   0.25000000  0.25000000  0.24909367
  -0.00042849  0.33601280  0.00001551
   0.00042849  0.66398723  0.00001551
   0.74957151  0.08601278  0.24998449
   0.75042849  0.41398720  0.24998449
  -0.00042849  0.83601277  0.50001551
   0.00042849  0.16398722  0.50001551
   0.74957151  0.58601277  0.74998449
   0.75042849  0.91398723  0.74998449
   0.49957151  0.33601280  0.50001551
   0.50042849  0.66398723  0.50001551
   0.24957151  0.08601278  0.74998449
   0.25042849  0.41398720  0.74998449
   0.49957151  0.83601277  0.00001551
   0.50042849  0.16398722  0.00001551
   0.24957151  0.58601277  0.24998449
   0.25042849  0.91398723  0.24998449
Direct configuration=    20
  -0.00000000 -0.00000000  0.00090633
   0.75000000  0.75000000  0.24909367
  -0.00000000  0.50000000  0.50090633
   0.75000000  0.25000000  0.74909367
   0.50000000 -0.00000000  0.50090633
   0.25000000  0.75000000  0.74909367
   0.50000000  0.50000000  0.00090633
   0.25000000  0.25000000  0.24909367
  -0.00042849  0.33601280  0.00001551
   0.00042849  0.66398723  0.00001551
   0.74957151  0.08601278  0.24998449
   0.75042849  0.41398720  0.24998449
  -0.00042849  0.83601277  0.50001551
   0.00042849  0.16398722  0.50001551
   0.74957151  0.58601277  0.74998449
   0.75042849  0.91398723  0.74998449
   0.49957151  0.33601280  0.50001551
   0.50042849  0.66398723  0.50001551
   0.24957151  0.08601278  0.74998449
   0.25042849  0.41398720  0.74998449
   0.49957151  0.83601277  0.00001551
   0.50042849  0.16398722  0.00001551
   0.24957151  0.58601277  0.24998449
   0.25042849  0.91398723  0.24998449
Direct configuration=    21
  -0.00000000 -0.00000000  0.00090633
   0.75000000  0.75000000  0.24909367
  -0.00000000  0.50000000  0.50090633
   0.75000000  0.25000000  0.74909367
   0.50000000 -0.00000000  0.50090633
   0.25000000  0.75000000  0.74909367
   0.50000000  0.50000000  0.00090633
   0.25000000  0.25000000  0.24909367
  -0.00042849  0.33601280  0.00001551
   0.00042849  0.66398723  0.00001551
   0.74957151  0.08601278  0.24998449
   0.75042849  0.41398720  0.24998449
  -0.00042849  0.83601277  0.50001551
   0.00042849  0.16398722  0.50001551
   0.74957151  0.58601277  0.74998449
   0.75042849  0.91398723  0.74998449
   0.49957151  0.33601280  0.50001551
   0.50042849  0.66398723  0.50001551
   0.24957151  0.08601278  0.74998449
   0.25042849  0.41398720  0.74998449
   0.49957151  0.83601277  0.00001551
   0.50042849  0.16398722  0.00001551
   0.24957151  0.58601277  0.24998449
   0.25042849  0.91398723  0.24998449
