Sn                                      
           1
     5.944297    0.000000    0.000000
     0.000000    5.884854   -0.059443
     0.000000   -0.032120    3.147808
   Sn
   4
Direct configuration=     1
   0.00000000  0.00000000  0.50000000
   0.50000000  0.00000000  0.75000000
   0.50000000  0.50000000  0.00000000
   0.00000000  0.50000000  0.25000000
Direct configuration=     2
   0.00000000  0.00016845  0.50027737
   0.50000000 -0.00016845  0.74972263
   0.50000000  0.50016845  0.00027737
  -0.00000000  0.49983155  0.24972263
Direct configuration=     3
   0.00000000  0.00067381  0.50110947
   0.50000000 -0.00067382  0.74889051
   0.50000000  0.50067382  0.00110949
  -0.00000000  0.49932619  0.24889052
Direct configuration=     4
   0.00000001  0.00168452  0.50277367
   0.49999999 -0.00168454  0.74722628
   0.50000001  0.50168455  0.00277373
  -0.00000001  0.49831547  0.24722631
Direct configuration=     5
   0.00000001  0.00121802  0.50200555
   0.49999999 -0.00121804  0.74799441
   0.50000001  0.50121804  0.00200560
  -0.00000001  0.49878197  0.24799443
Direct configuration=     6
   0.00000000  0.00117757  0.50281300
   0.50000000 -0.00117758  0.74718697
   0.50000000  0.50117758  0.00281305
  -0.00000000  0.49882243  0.24718699
Direct configuration=     7
  -0.00000000  0.00105620  0.50523533
   0.50000000 -0.00105620  0.74476462
   0.50000000  0.50105620  0.00523541
   0.00000000  0.49894379  0.24476464
Direct configuration=     8
  -0.00000002  0.00081347  0.51008000
   0.50000002 -0.00081344  0.73991993
   0.49999998  0.50081344  0.01008012
   0.00000002  0.49918652  0.23991995
Direct configuration=     9
  -0.00000002  0.00078410  0.51066623
   0.50000003 -0.00078406  0.73933370
   0.49999998  0.50078407  0.01066635
   0.00000002  0.49921589  0.23933372
