       N       E                     dE             d eps       ncg     rms          rms(c)
DAV:   1     0.346679193879E+02    0.34668E+02   -0.39173E+03 16464   0.664E+02
DAV:   2    -0.126259174641E+02   -0.47294E+02   -0.44574E+02 20928   0.105E+02
DAV:   3    -0.153192432589E+02   -0.26933E+01   -0.25950E+01 22240   0.273E+01
DAV:   4    -0.153609707227E+02   -0.41727E-01   -0.41566E-01 19860   0.339E+00
DAV:   5    -0.153617079788E+02   -0.73726E-03   -0.73679E-03 22132   0.393E-01    0.153E+00
RMM:   6    -0.153188337125E+02    0.42874E-01   -0.87304E-03 16464   0.738E-01    0.953E-01
RMM:   7    -0.152917958683E+02    0.27038E-01   -0.27688E-02 16464   0.131E+00    0.625E-02
RMM:   8    -0.152920266273E+02   -0.23076E-03   -0.77017E-04 16598   0.228E-01    0.164E-02
RMM:   9    -0.152920345027E+02   -0.78754E-05   -0.41092E-05 16874   0.453E-02    0.566E-03
RMM:  10    -0.152920516473E+02   -0.17145E-04   -0.91953E-06 15373   0.190E-02    0.131E-03
RMM:  11    -0.152920525265E+02   -0.87923E-06   -0.22951E-07  9795   0.325E-03
   1 F= -.15292053E+02 E0= -.15290108E+02  d E =-.152921E+02
       N       E                     dE             d eps       ncg     rms          rms(c)
DAV:   1    -0.152920974749E+02   -0.45828E-04   -0.22088E-04 20224   0.838E-02    0.296E-03
RMM:   2    -0.152920991554E+02   -0.16805E-05   -0.14313E-05 14985   0.201E-02    0.115E-03
RMM:   3    -0.152920987560E+02    0.39939E-06   -0.39882E-07  8005   0.365E-03    0.659E-04
RMM:   4    -0.152920991669E+02   -0.41088E-06   -0.78748E-08  5388   0.213E-03
   2 F= -.15292099E+02 E0= -.15290155E+02  d E =-.466404E-04
       N       E                     dE             d eps       ncg     rms          rms(c)
DAV:   1    -0.152921890015E+02   -0.90245E-04   -0.20042E-03 18888   0.252E-01    0.880E-03
RMM:   2    -0.152921998682E+02   -0.10867E-04   -0.13441E-04 16452   0.621E-02    0.480E-04
RMM:   3    -0.152922006446E+02   -0.77642E-06   -0.43174E-06 11635   0.951E-03    0.499E-04
RMM:   4    -0.152922007107E+02   -0.66120E-07   -0.28413E-07  8140   0.319E-03
   3 F= -.15292201E+02 E0= -.15290257E+02  d E =-.148184E-03
       N       E                     dE             d eps       ncg     rms          rms(c)
DAV:   1    -0.152921972192E+02    0.34254E-05   -0.80005E-03 18512   0.504E-01    0.175E-02
RMM:   2    -0.152922425423E+02   -0.45323E-04   -0.53533E-04 16469   0.124E-01    0.620E-04
RMM:   3    -0.152922442905E+02   -0.17482E-05   -0.17284E-05 14108   0.187E-02    0.683E-04
RMM:   4    -0.152922443710E+02   -0.80577E-07   -0.78324E-07  9887   0.476E-03
   4 F= -.15292244E+02 E0= -.15290302E+02  d E =-.191845E-03
       N       E                     dE             d eps       ncg     rms          rms(c)
DAV:   1    -0.152922477715E+02   -0.34811E-05   -0.96723E-04 17936   0.175E-01    0.669E-03
RMM:   2    -0.152922529907E+02   -0.52192E-05   -0.63877E-05 16317   0.429E-02    0.970E-04
RMM:   3    -0.152922531682E+02   -0.17751E-06   -0.18775E-06 10348   0.643E-03    0.573E-04
RMM:   4    -0.152922531833E+02   -0.15026E-07   -0.16741E-07  5979   0.243E-03
   5 F= -.15292253E+02 E0= -.15290310E+02  d E =-.200657E-03
       N       E                     dE             d eps       ncg     rms          rms(c)
DAV:   1    -0.152923101341E+02   -0.56966E-04   -0.73458E-04 17336   0.156E-01    0.382E-03
RMM:   2    -0.152923133631E+02   -0.32289E-05   -0.23854E-05 16164   0.282E-02    0.285E-03
RMM:   3    -0.152923118088E+02    0.15542E-05   -0.14674E-06 10392   0.629E-03    0.108E-03
RMM:   4    -0.152923123406E+02   -0.53175E-06   -0.27562E-07  8770   0.302E-03
   6 F= -.15292312E+02 E0= -.15290373E+02  d E =-.591573E-04
       N       E                     dE             d eps       ncg     rms          rms(c)
DAV:   1    -0.152924428814E+02   -0.13107E-03   -0.66411E-03 17060   0.469E-01    0.117E-02
RMM:   2    -0.152924605186E+02   -0.17637E-04   -0.22990E-04 16505   0.874E-02    0.176E-03
RMM:   3    -0.152924615519E+02   -0.10334E-05   -0.11503E-05 14618   0.151E-02    0.207E-03
RMM:   4    -0.152924612959E+02    0.25606E-06   -0.51214E-07 10263   0.415E-03
   7 F= -.15292461E+02 E0= -.15290535E+02  d E =-.208113E-03
       N       E                     dE             d eps       ncg     rms          rms(c)
DAV:   1    -0.152925551126E+02   -0.93561E-04   -0.26574E-02 17124   0.939E-01    0.225E-02
RMM:   2    -0.152926274862E+02   -0.72374E-04   -0.94148E-04 16505   0.176E-01    0.395E-03
RMM:   3    -0.152926329481E+02   -0.54619E-05   -0.41399E-05 16875   0.284E-02    0.717E-03
RMM:   4    -0.152926321102E+02    0.83790E-06   -0.11198E-06 11016   0.577E-03
   8 F= -.15292632E+02 E0= -.15290733E+02  d E =-.378927E-03
       N       E                     dE             d eps       ncg     rms          rms(c)
DAV:   1    -0.152926397606E+02   -0.68125E-05   -0.20250E-03 18668   0.259E-01    0.563E-03
RMM:   2    -0.152926459202E+02   -0.61596E-05   -0.68795E-05 16452   0.479E-02    0.286E-03
RMM:   3    -0.152926457120E+02    0.20814E-06   -0.22779E-06 11291   0.716E-03    0.185E-03
RMM:   4    -0.152926455636E+02    0.14840E-06   -0.43771E-07  9829   0.356E-03
   9 F= -.15292646E+02 E0= -.15290753E+02  d E =-.392380E-03
       N       E                     dE             d eps       ncg     rms          rms(c)
DAV:   1    -0.152926472466E+02   -0.15346E-05   -0.18581E-04 19052   0.785E-02    0.212E-03
RMM:   2    -0.152926477019E+02   -0.45524E-06   -0.61537E-06 13581   0.144E-02    0.120E-03
RMM:   3    -0.152926477121E+02   -0.10285E-07   -0.22167E-07  7663   0.281E-03    0.110E-03
RMM:   4    -0.152926476974E+02    0.14699E-07   -0.33591E-08  3324   0.147E-03
  10 F= -.15292648E+02 E0= -.15290757E+02  d E =-.394514E-03
       N       E                     dE             d eps       ncg     rms          rms(c)
DAV:   1    -0.152926473450E+02    0.36714E-06   -0.77637E-06 18960   0.163E-02    0.855E-04
RMM:   2    -0.152926473782E+02   -0.33146E-07   -0.21601E-07  6398   0.294E-03    0.788E-04
RMM:   3    -0.152926473812E+02   -0.30554E-08   -0.14309E-09   930   0.115E-03    0.817E-04
RMM:   4    -0.152926473804E+02    0.80023E-09   -0.44529E-11   529   0.112E-03
  11 F= -.15292647E+02 E0= -.15290756E+02  d E =-.394197E-03
       N       E                     dE             d eps       ncg     rms          rms(c)
DAV:   1    -0.152926475811E+02   -0.19986E-06   -0.27750E-06 15728   0.988E-03    0.923E-04
RMM:   2    -0.152926475725E+02    0.85617E-08   -0.10024E-07  4707   0.219E-03    0.789E-04
RMM:   3    -0.152926475671E+02    0.53792E-08   -0.19457E-08  1664   0.145E-03    0.596E-04
RMM:   4    -0.152926475699E+02   -0.27289E-08   -0.92400E-11   404   0.125E-03
  12 F= -.15292648E+02 E0= -.15290756E+02  d E =-.394387E-03
       N       E                     dE             d eps       ncg     rms          rms(c)
DAV:   1    -0.152926474578E+02    0.10936E-06   -0.50147E-07  9068   0.450E-03    0.430E-04
RMM:   2    -0.152926474501E+02    0.76634E-08   -0.16801E-08  2579   0.153E-03    0.282E-04
RMM:   3    -0.152926474511E+02   -0.97705E-09   -0.29260E-09   739   0.140E-03    0.248E-04
RMM:   4    -0.152926474492E+02    0.18681E-08   -0.20837E-10   373   0.137E-03
  13 F= -.15292647E+02 E0= -.15290756E+02  d E =-.394266E-03
       N       E                     dE             d eps       ncg     rms          rms(c)
DAV:   1    -0.152926475116E+02   -0.60510E-07   -0.16076E-07  8796   0.259E-03    0.175E-04
RMM:   2    -0.152926475112E+02    0.42183E-09    0.00000E+00   529   0.836E-04    0.903E-05
RMM:   3    -0.152926475091E+02    0.20741E-08    0.00000E+00   255   0.805E-04    0.857E-05
RMM:   4    -0.152926475101E+02   -0.96892E-09    0.00000E+00   208   0.724E-04
  14 F= -.15292648E+02 E0= -.15290756E+02  d E =-.394327E-03
       N       E                     dE             d eps       ncg     rms          rms(c)
DAV:   1    -0.152926474977E+02    0.11438E-07   -0.21499E-08  8852   0.931E-04    0.431E-05
RMM:   2    -0.152926474983E+02   -0.59725E-09    0.00000E+00   388   0.295E-04    0.178E-05
RMM:   3    -0.152926474978E+02    0.40539E-09    0.00000E+00   205   0.307E-04    0.264E-05
RMM:   4    -0.152926474969E+02    0.90523E-09    0.00000E+00   139   0.298E-04
  15 F= -.15292647E+02 E0= -.15290756E+02  d E =-.394314E-03
       N       E                     dE             d eps       ncg     rms          rms(c)
DAV:   1    -0.152926475042E+02   -0.63049E-08   -0.45491E-09  8676   0.436E-04    0.280E-05
RMM:   2    -0.152926475047E+02   -0.54090E-09    0.00000E+00   310   0.165E-04    0.211E-05
RMM:   3    -0.152926475048E+02   -0.15198E-09    0.00000E+00   140   0.175E-04    0.165E-05
RMM:   4    -0.152926475049E+02   -0.61290E-10    0.00000E+00    87   0.168E-04
  16 F= -.15292648E+02 E0= -.15290756E+02  d E =-.394322E-03
       N       E                     dE             d eps       ncg     rms          rms(c)
DAV:   1    -0.152926475068E+02   -0.20003E-08   -0.14410E-09  8560   0.206E-04    0.965E-06
RMM:   2    -0.152926475065E+02    0.30768E-09    0.00000E+00   264   0.810E-05    0.765E-06
RMM:   3    -0.152926475064E+02    0.14615E-09    0.00000E+00    99   0.815E-05    0.432E-06
RMM:   4    -0.152926475059E+02    0.46951E-09    0.00000E+00    69   0.823E-05
  17 F= -.15292648E+02 E0= -.15290756E+02  d E =-.394323E-03
       N       E                     dE             d eps       ncg     rms          rms(c)
DAV:   1    -0.152926475100E+02   -0.35999E-08   -0.11418E-09  8500   0.200E-04    0.726E-06
RMM:   2    -0.152926475102E+02   -0.20836E-09    0.00000E+00   226   0.827E-05    0.421E-06
RMM:   3    -0.152926475106E+02   -0.35609E-09    0.00000E+00    70   0.850E-05    0.102E-06
RMM:   4    -0.152926475109E+02   -0.32226E-09    0.00000E+00    49   0.857E-05
  18 F= -.15292648E+02 E0= -.15290756E+02  d E =-.394328E-03
       N       E                     dE             d eps       ncg     rms          rms(c)
DAV:   1    -0.152926475121E+02   -0.15720E-08   -0.60594E-10  8480   0.129E-04    0.306E-06
RMM:   2    -0.152926475121E+02    0.52809E-10    0.00000E+00   210   0.533E-05    0.999E-07
RMM:   3    -0.152926475123E+02   -0.18338E-09    0.00000E+00    67   0.533E-05    0.798E-07
RMM:   4    -0.152926475120E+02    0.29634E-09    0.00000E+00    47   0.533E-05
  19 F= -.15292648E+02 E0= -.15290756E+02  d E =-.394329E-03
       N       E                     dE             d eps       ncg     rms          rms(c)
DAV:   1    -0.152926475125E+02   -0.26548E-09   -0.11548E-10  8412   0.592E-05    0.149E-06
RMM:   2    -0.152926475133E+02   -0.78323E-09    0.00000E+00   166   0.266E-05    0.245E-06
RMM:   3    -0.152926475134E+02   -0.10884E-09    0.00000E+00    55   0.268E-05    0.180E-06
RMM:   4    -0.152926475127E+02    0.73584E-09    0.00000E+00    41   0.270E-05
  20 F= -.15292648E+02 E0= -.15290756E+02  d E =-.394329E-03
       N       E                     dE             d eps       ncg     rms          rms(c)
DAV:   1    -0.152926475140E+02   -0.57076E-09   -0.44341E-11  8368   0.325E-05    0.107E-06
RMM:   2    -0.152926475132E+02    0.78313E-09    0.00000E+00   152   0.157E-05    0.974E-07
RMM:   3    -0.152926475137E+02   -0.46850E-09    0.00000E+00    42   0.158E-05    0.712E-07
RMM:   4    -0.152926475133E+02    0.35831E-09    0.00000E+00    34   0.161E-05
  21 F= -.15292648E+02 E0= -.15290756E+02  d E =-.394330E-03
       N       E                     dE             d eps       ncg     rms          rms(c)
DAV:   1    -0.152926475141E+02   -0.41305E-09   -0.15720E-11  8384   0.198E-05    0.490E-07
RMM:   2    -0.152926475138E+02    0.29262E-09    0.00000E+00   140   0.944E-06    0.642E-08
RMM:   3    -0.152926475141E+02   -0.32566E-09    0.00000E+00    40   0.949E-06    0.378E-08
RMM:   4    -0.152926475138E+02    0.27928E-09    0.00000E+00    30   0.948E-06
  22 F= -.15292648E+02 E0= -.15290756E+02  d E =-.394331E-03
       N       E                     dE             d eps       ncg     rms          rms(c)
DAV:   1    -0.152926475135E+02    0.57689E-09   -0.60310E-12  8368   0.106E-05    0.340E-07
RMM:   2    -0.152926475141E+02   -0.58585E-09    0.00000E+00   133   0.578E-06    0.609E-08
RMM:   3    -0.152926475136E+02    0.56560E-09    0.00000E+00    34   0.575E-06    0.487E-09
RMM:   4    -0.152926475136E+02   -0.24286E-10    0.00000E+00    26   0.575E-06
  23 F= -.15292648E+02 E0= -.15290756E+02  d E =-.394330E-03
       N       E                     dE             d eps       ncg     rms          rms(c)
DAV:   1    -0.152919527959E+02    0.69472E-03   -0.10818E-01 16924   0.189E+00    0.472E-02
RMM:   2    -0.152922485041E+02   -0.29571E-03   -0.40781E-03 16521   0.363E-01    0.131E-02
RMM:   3    -0.152922533591E+02   -0.48550E-05   -0.13309E-04 17138   0.512E-02    0.238E-03
RMM:   4    -0.152922532687E+02    0.90322E-07   -0.41378E-06 12439   0.102E-02
  24 F= -.15292253E+02 E0= -.15290310E+02  d E =-.854903E-07
