Sn                                      
           1
     5.944297    0.000000    0.000000
     0.000000    5.914576   -0.029721
     0.000000   -0.016060    3.179928
   Sn
   4
Direct configuration=     1
   0.00000000  0.00000000  0.50000000
   0.50000000  0.00000000  0.75000000
   0.50000000  0.50000000  0.00000000
   0.00000000  0.50000000  0.25000000
Direct configuration=     2
   0.00000000  0.00007528  0.50012142
   0.50000000 -0.00007528  0.74987858
   0.50000000  0.50007528  0.00012142
   0.00000000  0.49992472  0.24987858
Direct configuration=     3
   0.00000000  0.00030111  0.50048569
   0.50000000 -0.00030111  0.74951431
   0.50000000  0.50030111  0.00048569
   0.00000000  0.49969889  0.24951431
Direct configuration=     4
   0.00000000  0.00075277  0.50121423
   0.50000000 -0.00075277  0.74878577
   0.50000000  0.50075277  0.00121423
   0.00000000  0.49924723  0.24878577
Direct configuration=     5
   0.00000000  0.00059544  0.50096045
   0.50000000 -0.00059544  0.74903955
   0.50000000  0.50059544  0.00096045
   0.00000000  0.49940456  0.24903955
Direct configuration=     6
   0.00000000  0.00057709  0.50134372
   0.50000000 -0.00057709  0.74865628
   0.50000000  0.50057709  0.00134372
   0.00000000  0.49942291  0.24865628
Direct configuration=     7
  -0.00000000  0.00052205  0.50249354
   0.50000000 -0.00052205  0.74750646
   0.50000000  0.50052205  0.00249354
  -0.00000000  0.49947795  0.24750646
Direct configuration=     8
  -0.00000000  0.00041197  0.50479316
   0.50000000 -0.00041197  0.74520684
   0.50000000  0.50041197  0.00479316
  -0.00000000  0.49958803  0.24520684
Direct configuration=     9
  -0.00000000  0.00038144  0.50543090
   0.50000000 -0.00038144  0.74456910
   0.50000000  0.50038144  0.00543090
  -0.00000000  0.49961856  0.24456910
Direct configuration=    10
  -0.00000000  0.00037219  0.50562408
   0.50000000 -0.00037219  0.74437592
   0.50000000  0.50037219  0.00562408
  -0.00000000  0.49962781  0.24437592
Direct configuration=    11
  -0.00000000  0.00037410  0.50558415
   0.50000000 -0.00037410  0.74441585
   0.50000000  0.50037410  0.00558415
  -0.00000000  0.49962590  0.24441585
Direct configuration=    12
  -0.00000000  0.00037296  0.50560807
   0.50000000 -0.00037296  0.74439193
   0.50000000  0.50037296  0.00560807
  -0.00000000  0.49962704  0.24439193
Direct configuration=    13
  -0.00000000  0.00037353  0.50559611
   0.50000000 -0.00037353  0.74440389
   0.50000000  0.50037353  0.00559611
  -0.00000000  0.49962647  0.24440389
Direct configuration=    14
  -0.00000000  0.00037321  0.50560273
   0.50000000 -0.00037321  0.74439727
   0.50000000  0.50037321  0.00560273
  -0.00000000  0.49962679  0.24439727
Direct configuration=    15
  -0.00000000  0.00037331  0.50560073
   0.50000000 -0.00037331  0.74439927
   0.50000000  0.50037331  0.00560073
  -0.00000000  0.49962669  0.24439927
Direct configuration=    16
  -0.00000000  0.00037327  0.50560159
   0.50000000 -0.00037327  0.74439841
   0.50000000  0.50037327  0.00560159
  -0.00000000  0.49962673  0.24439841
Direct configuration=    17
  -0.00000000  0.00037326  0.50560184
   0.50000000 -0.00037326  0.74439816
   0.50000000  0.50037326  0.00560184
  -0.00000000  0.49962674  0.24439816
Direct configuration=    18
  -0.00000000  0.00037324  0.50560228
   0.50000000 -0.00037324  0.74439772
   0.50000000  0.50037324  0.00560228
  -0.00000000  0.49962676  0.24439772
Direct configuration=    19
  -0.00000000  0.00037322  0.50560251
   0.50000000 -0.00037322  0.74439749
   0.50000000  0.50037322  0.00560251
  -0.00000000  0.49962678  0.24439749
Direct configuration=    20
  -0.00000000  0.00037322  0.50560262
   0.50000000 -0.00037322  0.74439738
   0.50000000  0.50037322  0.00560262
  -0.00000000  0.49962678  0.24439738
Direct configuration=    21
  -0.00000000  0.00037322  0.50560267
   0.50000000 -0.00037322  0.74439733
   0.50000000  0.50037322  0.00560267
  -0.00000000  0.49962678  0.24439733
Direct configuration=    22
  -0.00000000  0.00037322  0.50560270
   0.50000000 -0.00037322  0.74439730
   0.50000000  0.50037322  0.00560270
  -0.00000000  0.49962678  0.24439730
Direct configuration=    23
  -0.00000000  0.00037321  0.50560271
   0.50000000 -0.00037321  0.74439729
   0.50000000  0.50037321  0.00560271
  -0.00000000  0.49962679  0.24439729
