       N       E                     dE             d eps       ncg     rms          rms(c)
DAV:   1     0.931155004081E+03    0.93116E+03   -0.54043E+04 30576   0.175E+03
DAV:   2     0.145574735144E+01   -0.92970E+03   -0.89906E+03 30576   0.400E+02
DAV:   3    -0.923141369573E+02   -0.93770E+02   -0.89136E+02 31992   0.149E+02
DAV:   4    -0.958568219711E+02   -0.35427E+01   -0.34788E+01 35956   0.283E+01
DAV:   5    -0.959496609488E+02   -0.92839E-01   -0.92611E-01 37040   0.395E+00    0.342E+01
RMM:   6    -0.103706449378E+03   -0.77568E+01   -0.42855E+02 30633   0.123E+02    0.252E+01
RMM:   7    -0.790416905074E+02    0.24665E+02   -0.92172E+01 30576   0.617E+01    0.281E+00
RMM:   8    -0.790991147636E+02   -0.57424E-01   -0.92981E+00 30576   0.158E+01    0.461E+00
RMM:   9    -0.786700514730E+02    0.42906E+00   -0.98622E-01 30577   0.629E+00    0.556E-01
RMM:  10    -0.786642222472E+02    0.58292E-02   -0.32193E-02 30579   0.754E-01    0.308E-01
RMM:  11    -0.786619008956E+02    0.23214E-02   -0.16939E-02 30576   0.555E-01    0.715E-02
RMM:  12    -0.786618726420E+02    0.28254E-04   -0.46230E-04 30582   0.868E-02    0.466E-02
RMM:  13    -0.786618548568E+02    0.17785E-04   -0.16414E-04 30573   0.688E-02    0.222E-02
RMM:  14    -0.786618424886E+02    0.12368E-04   -0.27790E-05 18819   0.328E-02    0.593E-03
RMM:  15    -0.786618423774E+02    0.11118E-06   -0.49371E-06 17187   0.122E-02
   1 F= -.78661842E+02 E0= -.78656455E+02  d E =-.786618E+02
       N       E                     dE             d eps       ncg     rms          rms(c)
DAV:   1    -0.786621834665E+02   -0.34098E-03   -0.40538E-02 32820   0.738E-01    0.180E-02
RMM:   2    -0.786621826559E+02    0.81063E-06   -0.86474E-05 29733   0.615E-02    0.118E-02
RMM:   3    -0.786621808789E+02    0.17770E-05   -0.10127E-05 16399   0.139E-02    0.330E-03
RMM:   4    -0.786621798127E+02    0.10662E-05   -0.26383E-06 16062   0.108E-02
   2 F= -.78662180E+02 E0= -.78656790E+02  d E =-.337435E-03
       N       E                     dE             d eps       ncg     rms          rms(c)
DAV:   1    -0.786628671275E+02   -0.68625E-03   -0.36481E-01 31552   0.221E+00    0.542E-02
RMM:   2    -0.786628298418E+02    0.37286E-04   -0.77288E-04 30576   0.188E-01    0.103E-02
RMM:   3    -0.786628291949E+02    0.64696E-06   -0.30768E-05 19161   0.306E-02    0.170E-03
RMM:   4    -0.786628299399E+02   -0.74500E-06   -0.52057E-06 16478   0.127E-02
   3 F= -.78662830E+02 E0= -.78657431E+02  d E =-.987562E-03
       N       E                     dE             d eps       ncg     rms          rms(c)
DAV:   1    -0.786624214040E+02    0.40779E-03   -0.14599E+00 30712   0.442E+00    0.109E-01
RMM:   2    -0.786622681126E+02    0.15329E-03   -0.30510E-03 30576   0.375E-01    0.691E-03
RMM:   3    -0.786622783478E+02   -0.10235E-04   -0.11715E-04 30308   0.488E-02    0.378E-03
RMM:   4    -0.786622779546E+02    0.39311E-06   -0.72621E-06 17220   0.162E-02
   4 F= -.78662278E+02 E0= -.78656860E+02  d E =-.435577E-03
       N       E                     dE             d eps       ncg     rms          rms(c)
DAV:   1    -0.786630048818E+02   -0.72653E-03   -0.78157E-01 30688   0.324E+00    0.789E-02
RMM:   2    -0.786629222427E+02    0.82639E-04   -0.15901E-03 30576   0.270E-01    0.856E-03
RMM:   3    -0.786629253497E+02   -0.31070E-05   -0.56299E-05 25062   0.363E-02    0.299E-03
RMM:   4    -0.786629260453E+02   -0.69558E-06   -0.52836E-06 16872   0.142E-02
   5 F= -.78662926E+02 E0= -.78657522E+02  d E =-.108367E-02
       N       E                     dE             d eps       ncg     rms          rms(c)
DAV:   1    -0.786631602743E+02   -0.23492E-03   -0.29527E-02 31212   0.642E-01    0.158E-02
RMM:   2    -0.786631885995E+02   -0.28325E-04   -0.23601E-04 30576   0.944E-02    0.300E-02
RMM:   3    -0.786631930600E+02   -0.44604E-05   -0.22827E-05 16798   0.244E-02    0.351E-02
RMM:   4    -0.786631664249E+02    0.26635E-04   -0.11758E-04 29306   0.658E-02    0.716E-03
RMM:   5    -0.786631660655E+02    0.35943E-06   -0.21950E-06 15751   0.603E-03
   6 F= -.78663166E+02 E0= -.78657761E+02  d E =-.240020E-03
       N       E                     dE             d eps       ncg     rms          rms(c)
DAV:   1    -0.786633023450E+02   -0.13592E-03   -0.60451E-02 30732   0.919E-01    0.228E-02
RMM:   2    -0.786633121568E+02   -0.98119E-05   -0.30283E-04 30576   0.109E-01    0.535E-03
RMM:   3    -0.786633128381E+02   -0.68127E-06   -0.12068E-05 17380   0.156E-02    0.480E-03
RMM:   4    -0.786633124751E+02    0.36300E-06   -0.40114E-06 16353   0.119E-02
   7 F= -.78663312E+02 E0= -.78657906E+02  d E =-.386430E-03
       N       E                     dE             d eps       ncg     rms          rms(c)
DAV:   1    -0.786633384574E+02   -0.25619E-04   -0.83434E-03 31824   0.333E-01    0.816E-03
RMM:   2    -0.786633405752E+02   -0.21178E-05   -0.27401E-05 17397   0.334E-02    0.946E-03
RMM:   3    -0.786633381651E+02    0.24101E-05   -0.13810E-05 15711   0.238E-02    0.395E-03
RMM:   4    -0.786633378869E+02    0.27821E-06   -0.26974E-06 15535   0.119E-02
   8 F= -.78663338E+02 E0= -.78657929E+02  d E =-.254118E-04
       N       E                     dE             d eps       ncg     rms          rms(c)
DAV:   1    -0.786633520900E+02   -0.13925E-04   -0.14445E-02 30792   0.439E-01    0.106E-02
RMM:   2    -0.786633510481E+02    0.10419E-05   -0.33121E-05 19728   0.390E-02    0.183E-03
RMM:   3    -0.786633512378E+02   -0.18974E-06   -0.34122E-06 15635   0.103E-02    0.801E-04
RMM:   4    -0.786633512450E+02   -0.71886E-08   -0.74962E-07 15509   0.549E-03
   9 F= -.78663351E+02 E0= -.78657940E+02  d E =-.387699E-04
       N       E                     dE             d eps       ncg     rms          rms(c)
DAV:   1    -0.786633512772E+02   -0.39321E-07   -0.69997E-05 30432   0.308E-02    0.790E-04
RMM:   2    -0.786633512662E+02    0.10911E-07   -0.15931E-07  6599   0.301E-03    0.221E-04
RMM:   3    -0.786633512783E+02   -0.12042E-07   -0.27221E-09  1554   0.206E-03    0.184E-04
RMM:   4    -0.786633512693E+02    0.89739E-08   -0.25474E-09  1117   0.205E-03
  10 F= -.78663351E+02 E0= -.78657939E+02  d E =-.387942E-04
       N       E                     dE             d eps       ncg     rms          rms(c)
DAV:   1    -0.786633550811E+02   -0.38028E-05   -0.11145E-03 30864   0.123E-01    0.305E-03
RMM:   2    -0.786633554236E+02   -0.34251E-06   -0.41433E-06 15361   0.131E-02    0.351E-03
RMM:   3    -0.786633553634E+02    0.60245E-07   -0.80075E-07 15320   0.526E-03    0.241E-03
RMM:   4    -0.786633550382E+02    0.32521E-06   -0.42084E-07 14429   0.397E-03
  11 F= -.78663355E+02 E0= -.78657941E+02  d E =-.376884E-05
       N       E                     dE             d eps       ncg     rms          rms(c)
DAV:   1    -0.786633568833E+02   -0.15199E-05   -0.16172E-03 30888   0.148E-01    0.364E-03
RMM:   2    -0.786633566976E+02    0.18566E-06   -0.44675E-06 15471   0.139E-02    0.568E-04
RMM:   3    -0.786633569261E+02   -0.22853E-06   -0.67831E-07 15156   0.425E-03    0.991E-04
RMM:   4    -0.786633568992E+02    0.26970E-07   -0.10666E-07  7662   0.282E-03
  12 F= -.78663357E+02 E0= -.78657942E+02  d E =-.562986E-05
       N       E                     dE             d eps       ncg     rms          rms(c)
DAV:   1    -0.786633569147E+02    0.11453E-07   -0.19813E-05 17924   0.167E-02    0.456E-04
RMM:   2    -0.786633569538E+02   -0.39088E-07   -0.39675E-07 12650   0.383E-03    0.306E-04
RMM:   3    -0.786633569426E+02    0.11225E-07   -0.64611E-10  1680   0.193E-03    0.136E-04
RMM:   4    -0.786633569307E+02    0.11836E-07   -0.59027E-10  1009   0.199E-03
  13 F= -.78663357E+02 E0= -.78657941E+02  d E =-.566141E-05
       N       E                     dE             d eps       ncg     rms          rms(c)
DAV:   1    -0.786633569084E+02    0.34107E-07   -0.65245E-06 15576   0.966E-03    0.477E-04
RMM:   2    -0.786633569334E+02   -0.24986E-07   -0.22263E-07 10549   0.346E-03    0.350E-04
RMM:   3    -0.786633569258E+02    0.76677E-08   -0.49570E-28   384   0.142E-03    0.192E-04
RMM:   4    -0.786633569202E+02    0.55652E-08    0.00000E+00   236   0.150E-03
  14 F= -.78663357E+02 E0= -.78657941E+02  d E =-.565089E-05
       N       E                     dE             d eps       ncg     rms          rms(c)
DAV:   1    -0.786633569320E+02   -0.61995E-08   -0.28549E-06 15480   0.629E-03    0.350E-04
RMM:   2    -0.786633569300E+02    0.19954E-08   -0.17901E-08  1949   0.215E-03    0.133E-04
RMM:   3    -0.786633569328E+02   -0.28052E-08   -0.13502E-08  1311   0.201E-03    0.597E-05
RMM:   4    -0.786633569369E+02   -0.40816E-08   -0.12404E-09   301   0.184E-03
  15 F= -.78663357E+02 E0= -.78657941E+02  d E =-.566755E-05
       N       E                     dE             d eps       ncg     rms          rms(c)
DAV:   1    -0.786633569418E+02   -0.90588E-08   -0.70559E-07 15468   0.338E-03    0.342E-04
RMM:   2    -0.786633569269E+02    0.14912E-07    0.00000E+00   370   0.166E-03    0.137E-04
RMM:   3    -0.786633569275E+02   -0.56161E-09   -0.15463E-09   376   0.178E-03    0.797E-05
RMM:   4    -0.786633569267E+02    0.76795E-09   -0.88785E-09   852   0.186E-03
  16 F= -.78663357E+02 E0= -.78657941E+02  d E =-.565740E-05
       N       E                     dE             d eps       ncg     rms          rms(c)
DAV:   1    -0.786633569345E+02   -0.70370E-08   -0.32423E-07 15464   0.255E-03    0.361E-04
RMM:   2    -0.786633569431E+02   -0.86105E-08   -0.10563E-09   429   0.178E-03    0.569E-05
RMM:   3    -0.786633569453E+02   -0.21974E-08   -0.44532E-09   569   0.190E-03    0.360E-05
RMM:   4    -0.786633569448E+02    0.51227E-09    0.00000E+00   131   0.178E-03
  17 F= -.78663357E+02 E0= -.78657941E+02  d E =-.567551E-05
       N       E                     dE             d eps       ncg     rms          rms(c)
DAV:   1    -0.786633569517E+02   -0.63893E-08   -0.10264E-07 15476   0.188E-03    0.326E-04
RMM:   2    -0.786633569300E+02    0.21742E-07    0.00000E+00   255   0.129E-03    0.531E-05
RMM:   3    -0.786633569297E+02    0.27774E-09    0.00000E+00   155   0.141E-03    0.147E-05
RMM:   4    -0.786633569286E+02    0.11278E-08    0.00000E+00   115   0.146E-03
  18 F= -.78663357E+02 E0= -.78657941E+02  d E =-.565926E-05
       N       E                     dE             d eps       ncg     rms          rms(c)
DAV:   1    -0.786633569342E+02   -0.44591E-08   -0.51413E-08 15444   0.148E-03    0.281E-04
RMM:   2    -0.786633569464E+02   -0.12263E-07    0.00000E+00   205   0.114E-03    0.157E-05
RMM:   3    -0.786633569464E+02   -0.15746E-10    0.00000E+00   136   0.117E-03    0.763E-06
RMM:   4    -0.786633569464E+02    0.44736E-10    0.00000E+00    99   0.118E-03
  19 F= -.78663357E+02 E0= -.78657941E+02  d E =-.567708E-05
       N       E                     dE             d eps       ncg     rms          rms(c)
DAV:   1    -0.786633576554E+02   -0.70901E-06   -0.54572E-04 30664   0.863E-02    0.219E-03
RMM:   2    -0.786633575240E+02    0.13140E-06   -0.22686E-06 15298   0.103E-02    0.263E-03
RMM:   3    -0.786633578932E+02   -0.36914E-06   -0.12424E-06 15293   0.648E-03    0.303E-03
RMM:   4    -0.786633577054E+02    0.18777E-06   -0.14431E-06 15044   0.813E-03
  20 F= -.78663358E+02 E0= -.78657941E+02  d E =-.759019E-06
