AlCu                                    
           1
    12.119731    0.000000   -0.052031
     0.000000    4.104732    0.000000
    -4.002136    0.000000    5.704727
   Al   Cu
  10  10
Direct configuration=     1
   0.50000000  0.00000000  0.50000000
   0.15587366  0.00000000  0.46137374
   0.84412632  0.00000000  0.53862623
   0.87805559  0.50000000  0.99541334
   0.12194440  0.50000000  0.00458663
   0.00000000  0.50000000  0.50000000
   0.65587368  0.50000000  0.46137374
   0.34412635  0.50000000  0.53862623
   0.37805559  0.00000000  0.99541334
   0.62194441  0.00000000  0.00458663
   0.00000000  0.00000000  0.00000000
   0.25805145  0.00000000  0.24172886
   0.74194852  0.00000000  0.75827112
   0.10866387  0.00000000  0.77167894
   0.89133614  0.00000000  0.22832103
   0.50000000  0.50000000  0.00000000
   0.75805148  0.50000000  0.24172886
   0.24194855  0.50000000  0.75827112
   0.60866386  0.50000000  0.77167894
   0.39133614  0.50000000  0.22832103
Direct configuration=     2
   0.50000000 -0.00000000  0.50000000
   0.15589007 -0.00000000  0.46139132
   0.84410991 -0.00000000  0.53860865
   0.87811814  0.50000000  0.99557168
   0.12188185  0.50000000  0.00442830
  -0.00000000  0.50000000  0.50000000
   0.65589009  0.50000000  0.46139132
   0.34410994  0.50000000  0.53860865
   0.37811814 -0.00000000  0.99557168
   0.62188186 -0.00000000  0.00442830
  -0.00000000 -0.00000000 -0.00000000
   0.25794724 -0.00000000  0.24175041
   0.74205273 -0.00000000  0.75824958
   0.10869741 -0.00000000  0.77172227
   0.89130260  0.00000000  0.22827770
   0.50000000  0.50000000 -0.00000000
   0.75794727  0.50000000  0.24175041
   0.24205276  0.50000000  0.75824958
   0.60869740  0.50000000  0.77172227
   0.39130260  0.50000000  0.22827770
Direct configuration=     3
   0.50000000 -0.00000000  0.50000000
   0.15593931 -0.00000000  0.46144408
   0.84406068 -0.00000000  0.53855589
   0.87830579  0.50000000  0.99604669
   0.12169420  0.50000000  0.00395329
  -0.00000000  0.50000000  0.50000000
   0.65593932  0.50000000  0.46144408
   0.34406071  0.50000000  0.53855589
   0.37830579 -0.00000000  0.99604669
   0.62169421 -0.00000000  0.00395329
  -0.00000000 -0.00000000 -0.00000000
   0.25763460 -0.00000000  0.24181504
   0.74236537 -0.00000000  0.75818495
   0.10879804 -0.00000000  0.77185226
   0.89120198  0.00000000  0.22814771
   0.50000000  0.50000000 -0.00000000
   0.75763463  0.50000000  0.24181504
   0.24236540  0.50000000  0.75818495
   0.60879802  0.50000000  0.77185226
   0.39120198  0.50000000  0.22814771
Direct configuration=     4
   0.50000000 -0.00000000  0.50000000
   0.15603778 -0.00000000  0.46154960
   0.84396220 -0.00000000  0.53845037
   0.87868109  0.50000000  0.99699670
   0.12131891  0.50000000  0.00300328
  -0.00000000  0.50000000  0.50000000
   0.65603780  0.50000000  0.46154960
   0.34396223  0.50000000  0.53845037
   0.37868109 -0.00000000  0.99699670
   0.62131891 -0.00000000  0.00300328
  -0.00000000 -0.00000000 -0.00000000
   0.25700931 -0.00000000  0.24194430
   0.74299066 -0.00000000  0.75805568
   0.10899929 -0.00000000  0.77211224
   0.89100072  0.00000000  0.22788773
   0.50000000  0.50000000 -0.00000000
   0.75700934  0.50000000  0.24194430
   0.24299069  0.50000000  0.75805568
   0.60899928  0.50000000  0.77211224
   0.39100072  0.50000000  0.22788773
Direct configuration=     5
   0.50000000 -0.00000000  0.50000000
   0.15596571 -0.00000000  0.46147238
   0.84403427 -0.00000000  0.53852759
   0.87840642  0.50000000  0.99630142
   0.12159357  0.50000000  0.00369856
  -0.00000000  0.50000000  0.50000000
   0.65596573  0.50000000  0.46147238
   0.34403430  0.50000000  0.53852759
   0.37840642 -0.00000000  0.99630142
   0.62159358 -0.00000000  0.00369856
  -0.00000000 -0.00000000 -0.00000000
   0.25746694 -0.00000000  0.24184970
   0.74253303 -0.00000000  0.75815029
   0.10885200 -0.00000000  0.77192197
   0.89114801  0.00000000  0.22807800
   0.50000000  0.50000000 -0.00000000
   0.75746697  0.50000000  0.24184970
   0.24253306  0.50000000  0.75815029
   0.60885199  0.50000000  0.77192197
   0.39114801  0.50000000  0.22807800
Direct configuration=     6
   0.50000000 -0.00000000  0.50000000
   0.15593237 -0.00000000  0.46162161
   0.84406762 -0.00000000  0.53837837
   0.87850337  0.50000000  0.99658633
   0.12149662  0.50000000  0.00341365
  -0.00000000  0.50000000  0.50000000
   0.65593238  0.50000000  0.46162161
   0.34406765  0.50000000  0.53837837
   0.37850337 -0.00000000  0.99658633
   0.62149663  0.00000000  0.00341365
  -0.00000000 -0.00000000 -0.00000000
   0.25746816 -0.00000000  0.24192641
   0.74253181 -0.00000000  0.75807358
   0.10894330  0.00000000  0.77193903
   0.89105672  0.00000000  0.22806094
   0.50000000  0.50000000 -0.00000000
   0.75746819  0.50000000  0.24192641
   0.24253184  0.50000000  0.75807358
   0.60894328  0.50000000  0.77193903
   0.39105672  0.50000000  0.22806094
Direct configuration=     7
   0.50000000 -0.00000000  0.50000000
   0.15588467 -0.00000000  0.46183504
   0.84411531  0.00000000  0.53816493
   0.87864203  0.50000000  0.99699382
   0.12135796  0.50000000  0.00300615
  -0.00000000  0.50000000  0.50000000
   0.65588469  0.50000000  0.46183504
   0.34411534  0.50000000  0.53816493
   0.37864203 -0.00000000  0.99699382
   0.62135797  0.00000000  0.00300615
  -0.00000000 -0.00000000 -0.00000000
   0.25746992 -0.00000000  0.24203611
   0.74253005 -0.00000000  0.75796387
   0.10907387  0.00000000  0.77196343
   0.89092614  0.00000000  0.22803654
   0.50000000  0.50000000 -0.00000000
   0.75746995  0.50000000  0.24203611
   0.24253008  0.50000000  0.75796387
   0.60907386  0.50000000  0.77196343
   0.39092614  0.50000000  0.22803654
Direct configuration=     8
   0.50000000 -0.00000000  0.50000000
   0.15588679 -0.00000000  0.46179905
   0.84411320  0.00000000  0.53820092
   0.87867101  0.50000000  0.99707125
   0.12132898  0.50000000  0.00292873
   0.00000000  0.50000000  0.50000000
   0.65588680  0.50000000  0.46179905
   0.34411323  0.50000000  0.53820092
   0.37867101 -0.00000000  0.99707125
   0.62132899  0.00000000  0.00292873
   0.00000000 -0.00000000 -0.00000000
   0.25748715 -0.00000000  0.24204235
   0.74251282 -0.00000000  0.75795763
   0.10912997  0.00000000  0.77205254
   0.89087004  0.00000000  0.22794743
   0.50000000  0.50000000 -0.00000000
   0.75748718  0.50000000  0.24204235
   0.24251285  0.50000000  0.75795763
   0.60912996  0.50000000  0.77205254
   0.39087004  0.50000000  0.22794743
Direct configuration=     9
   0.50000000 -0.00000000  0.50000000
   0.15588957 -0.00000000  0.46175171
   0.84411041  0.00000000  0.53824826
   0.87870914  0.50000000  0.99717311
   0.12129085  0.50000000  0.00282687
   0.00000000  0.50000000  0.50000000
   0.65588959  0.50000000  0.46175171
   0.34411044  0.50000000  0.53824826
   0.37870914 -0.00000000  0.99717311
   0.62129086  0.00000000  0.00282687
   0.00000000 -0.00000000 -0.00000000
   0.25750981 -0.00000000  0.24205056
   0.74249016 -0.00000000  0.75794943
   0.10920378  0.00000000  0.77216978
   0.89079624  0.00000000  0.22783019
   0.50000000  0.50000000 -0.00000000
   0.75750984  0.50000000  0.24205056
   0.24249019  0.50000000  0.75794943
   0.60920376  0.50000000  0.77216978
   0.39079624  0.50000000  0.22783019
Direct configuration=    10
   0.50000000 -0.00000000  0.50000000
   0.15588976 -0.00000000  0.46174844
   0.84411022  0.00000000  0.53825154
   0.87871178  0.50000000  0.99718015
   0.12128821  0.50000000  0.00281982
   0.00000000  0.50000000  0.50000000
   0.65588978  0.50000000  0.46174844
   0.34411025  0.50000000  0.53825154
   0.37871178 -0.00000000  0.99718015
   0.62128822  0.00000000  0.00281982
   0.00000000 -0.00000000 -0.00000000
   0.25751138 -0.00000000  0.24205113
   0.74248859 -0.00000000  0.75794886
   0.10920888  0.00000000  0.77217789
   0.89079113  0.00000000  0.22782208
   0.50000000  0.50000000 -0.00000000
   0.75751141  0.50000000  0.24205113
   0.24248862  0.50000000  0.75794886
   0.60920887  0.50000000  0.77217789
   0.39079113  0.50000000  0.22782208
Direct configuration=    11
   0.50000000 -0.00000000  0.50000000
   0.15586710 -0.00000000  0.46172408
   0.84413289  0.00000000  0.53827589
   0.87872381  0.50000000  0.99717910
   0.12127618  0.50000000  0.00282088
   0.00000000  0.50000000  0.50000000
   0.65586711  0.50000000  0.46172408
   0.34413292  0.50000000  0.53827589
   0.37872381 -0.00000000  0.99717910
   0.62127619  0.00000000  0.00282088
   0.00000000 -0.00000000 -0.00000000
   0.25750779 -0.00000000  0.24203761
   0.74249218 -0.00000000  0.75796238
   0.10923050  0.00000000  0.77219460
   0.89076951  0.00000000  0.22780537
   0.50000000  0.50000000 -0.00000000
   0.75750782  0.50000000  0.24203761
   0.24249221  0.50000000  0.75796238
   0.60923049  0.50000000  0.77219460
   0.39076951  0.50000000  0.22780537
Direct configuration=    12
   0.50000000 -0.00000000  0.50000000
   0.15583980  0.00000000  0.46169476
   0.84416019  0.00000000  0.53830521
   0.87873829  0.50000000  0.99717782
   0.12126170  0.50000000  0.00282215
   0.00000000  0.50000000  0.50000000
   0.65583981  0.50000000  0.46169476
   0.34416022  0.50000000  0.53830521
   0.37873829 -0.00000000  0.99717782
   0.62126171  0.00000000  0.00282215
   0.00000000 -0.00000000 -0.00000000
   0.25750347 -0.00000000  0.24202132
   0.74249650 -0.00000000  0.75797866
   0.10925654  0.00000000  0.77221472
   0.89074347  0.00000000  0.22778525
   0.50000000  0.50000000 -0.00000000
   0.75750350  0.50000000  0.24202132
   0.24249653  0.50000000  0.75797866
   0.60925653  0.50000000  0.77221472
   0.39074347  0.50000000  0.22778525
Direct configuration=    13
   0.50000000 -0.00000000  0.50000000
   0.15583676  0.00000000  0.46169150
   0.84416322  0.00000000  0.53830847
   0.87873990  0.50000000  0.99717768
   0.12126009  0.50000000  0.00282229
   0.00000000  0.50000000  0.50000000
   0.65583678  0.50000000  0.46169150
   0.34416325  0.50000000  0.53830847
   0.37873990 -0.00000000  0.99717768
   0.62126010  0.00000000  0.00282229
   0.00000000 -0.00000000 -0.00000000
   0.25750299 -0.00000000  0.24201952
   0.74249698 -0.00000000  0.75798047
   0.10925944  0.00000000  0.77221695
   0.89074058  0.00000000  0.22778302
   0.50000000  0.50000000 -0.00000000
   0.75750302  0.50000000  0.24201952
   0.24249701  0.50000000  0.75798047
   0.60925942  0.50000000  0.77221695
   0.39074058  0.50000000  0.22778302
Direct configuration=    14
   0.50000000 -0.00000000  0.50000000
   0.15583856  0.00000000  0.46169343
   0.84416143  0.00000000  0.53830654
   0.87873895  0.50000000  0.99717777
   0.12126104  0.50000000  0.00282221
   0.00000000  0.50000000  0.50000000
   0.65583857  0.50000000  0.46169343
   0.34416146  0.50000000  0.53830654
   0.37873895 -0.00000000  0.99717777
   0.62126105  0.00000000  0.00282221
   0.00000000 -0.00000000 -0.00000000
   0.25750328 -0.00000000  0.24202059
   0.74249669 -0.00000000  0.75797940
   0.10925772  0.00000000  0.77221563
   0.89074229  0.00000000  0.22778434
   0.50000000  0.50000000 -0.00000000
   0.75750331  0.50000000  0.24202059
   0.24249672  0.50000000  0.75797940
   0.60925771  0.50000000  0.77221563
   0.39074229  0.50000000  0.22778434
Direct configuration=    15
   0.50000000 -0.00000000  0.50000000
   0.15583736  0.00000000  0.46169214
   0.84416263  0.00000000  0.53830783
   0.87873959  0.50000000  0.99717771
   0.12126041  0.50000000  0.00282227
   0.00000000  0.50000000  0.50000000
   0.65583737  0.50000000  0.46169214
   0.34416266  0.50000000  0.53830783
   0.37873959 -0.00000000  0.99717771
   0.62126041  0.00000000  0.00282227
   0.00000000 -0.00000000 -0.00000000
   0.25750309 -0.00000000  0.24201987
   0.74249688 -0.00000000  0.75798011
   0.10925887  0.00000000  0.77221651
   0.89074115  0.00000000  0.22778346
   0.50000000  0.50000000 -0.00000000
   0.75750312  0.50000000  0.24201987
   0.24249691  0.50000000  0.75798011
   0.60925885  0.50000000  0.77221651
   0.39074115  0.50000000  0.22778346
Direct configuration=    16
   0.50000000 -0.00000000  0.50000000
   0.15583796  0.00000000  0.46169278
   0.84416203  0.00000000  0.53830719
   0.87873927  0.50000000  0.99717774
   0.12126073  0.50000000  0.00282224
   0.00000000  0.50000000  0.50000000
   0.65583797  0.50000000  0.46169278
   0.34416206  0.50000000  0.53830719
   0.37873927 -0.00000000  0.99717774
   0.62126073  0.00000000  0.00282224
   0.00000000 -0.00000000 -0.00000000
   0.25750318 -0.00000000  0.24202023
   0.74249679 -0.00000000  0.75797976
   0.10925830  0.00000000  0.77221607
   0.89074172  0.00000000  0.22778390
   0.50000000  0.50000000 -0.00000000
   0.75750321  0.50000000  0.24202023
   0.24249682  0.50000000  0.75797976
   0.60925828  0.50000000  0.77221607
   0.39074172  0.50000000  0.22778390
Direct configuration=    17
   0.50000000 -0.00000000  0.50000000
   0.15583753  0.00000000  0.46169233
   0.84416245  0.00000000  0.53830764
   0.87873949  0.50000000  0.99717772
   0.12126050  0.50000000  0.00282226
   0.00000000  0.50000000  0.50000000
   0.65583755  0.50000000  0.46169233
   0.34416248  0.50000000  0.53830764
   0.37873949 -0.00000000  0.99717772
   0.62126051  0.00000000  0.00282226
   0.00000000 -0.00000000 -0.00000000
   0.25750311 -0.00000000  0.24201997
   0.74249686 -0.00000000  0.75798001
   0.10925870  0.00000000  0.77221639
   0.89074131  0.00000000  0.22778358
   0.50000000  0.50000000 -0.00000000
   0.75750314  0.50000000  0.24201997
   0.24249689  0.50000000  0.75798001
   0.60925869  0.50000000  0.77221639
   0.39074131  0.50000000  0.22778358
Direct configuration=    18
   0.50000000 -0.00000000  0.50000000
   0.15583775  0.00000000  0.46169256
   0.84416224  0.00000000  0.53830742
   0.87873938  0.50000000  0.99717773
   0.12126061  0.50000000  0.00282225
   0.00000000  0.50000000  0.50000000
   0.65583776  0.50000000  0.46169256
   0.34416227  0.50000000  0.53830742
   0.37873938 -0.00000000  0.99717773
   0.62126062  0.00000000  0.00282225
   0.00000000 -0.00000000 -0.00000000
   0.25750315 -0.00000000  0.24202010
   0.74249682 -0.00000000  0.75797988
   0.10925850  0.00000000  0.77221623
   0.89074152  0.00000000  0.22778374
   0.50000000  0.50000000 -0.00000000
   0.75750318  0.50000000  0.24202010
   0.24249685  0.50000000  0.75797988
   0.60925848  0.50000000  0.77221623
   0.39074152  0.50000000  0.22778374
Direct configuration=    19
   0.50000000 -0.00000000  0.50000000
   0.15583762  0.00000000  0.46169242
   0.84416236  0.00000000  0.53830755
   0.87873945  0.50000000  0.99717772
   0.12126055  0.50000000  0.00282225
   0.00000000  0.50000000  0.50000000
   0.65583764  0.50000000  0.46169242
   0.34416239  0.50000000  0.53830755
   0.37873945 -0.00000000  0.99717772
   0.62126055  0.00000000  0.00282225
   0.00000000 -0.00000000 -0.00000000
   0.25750313 -0.00000000  0.24202003
   0.74249684 -0.00000000  0.75797996
   0.10925862  0.00000000  0.77221632
   0.89074140  0.00000000  0.22778365
   0.50000000  0.50000000 -0.00000000
   0.75750316  0.50000000  0.24202003
   0.24249687  0.50000000  0.75797996
   0.60925860  0.50000000  0.77221632
   0.39074140  0.50000000  0.22778365
Direct configuration=    20
   0.50000000 -0.00000000  0.50000000
   0.15582961  0.00000000  0.46166884
   0.84417038  0.00000000  0.53833113
   0.87874236  0.50000000  0.99716764
   0.12125763  0.50000000  0.00283234
   0.00000000  0.50000000  0.50000000
   0.65582962  0.50000000  0.46166884
   0.34417041  0.50000000  0.53833113
   0.37874236 -0.00000000  0.99716764
   0.62125764  0.00000000  0.00283234
   0.00000000 -0.00000000 -0.00000000
   0.25750104 -0.00000000  0.24203734
   0.74249893 -0.00000000  0.75796264
   0.10926693  0.00000000  0.77222708
   0.89073309  0.00000000  0.22777289
   0.50000000  0.50000000 -0.00000000
   0.75750107  0.50000000  0.24203734
   0.24249896  0.50000000  0.75796264
   0.60926691  0.50000000  0.77222708
   0.39073309  0.50000000  0.22777289
