       N       E                     dE             d eps       ncg     rms          rms(c)
DAV:   1     0.552772055339E+03    0.55277E+03   -0.30379E+04 29736   0.121E+03
DAV:   2    -0.657693665288E+02   -0.61854E+03   -0.59658E+03 29512   0.296E+02
DAV:   3    -0.170577911695E+03   -0.10481E+03   -0.98622E+02 41506   0.103E+02
DAV:   4    -0.175433183849E+03   -0.48553E+01   -0.47893E+01 37816   0.240E+01
DAV:   5    -0.175529147938E+03   -0.95964E-01   -0.95632E-01 37774   0.350E+00    0.197E+01
RMM:   6    -0.163420471156E+03    0.12109E+02   -0.13979E+02 29701   0.419E+01    0.550E+00
RMM:   7    -0.161513054252E+03    0.19074E+01   -0.40331E+00 29516   0.817E+00    0.321E+00
RMM:   8    -0.161576930366E+03   -0.63876E-01   -0.72057E+00 29670   0.874E+00    0.293E+00
RMM:   9    -0.161106846528E+03    0.47008E+00   -0.32080E+00 29512   0.686E+00    0.610E-01
RMM:  10    -0.161093442631E+03    0.13404E-01   -0.12683E-01 30521   0.111E+00    0.393E-01
RMM:  11    -0.161086187655E+03    0.72550E-02   -0.32065E-02 29522   0.726E-01    0.871E-02
RMM:  12    -0.161086418764E+03   -0.23111E-03   -0.45796E-03 29878   0.144E-01    0.337E-02
RMM:  13    -0.161086492108E+03   -0.73344E-04   -0.14485E-03 29523   0.148E-01    0.483E-02
RMM:  14    -0.161086379694E+03    0.11241E-03   -0.36268E-04 29536   0.787E-02    0.107E-02
RMM:  15    -0.161086383595E+03   -0.39009E-05   -0.10141E-04 31869   0.266E-02    0.422E-03
RMM:  16    -0.161086381168E+03    0.24273E-05   -0.66034E-06 21420   0.791E-03    0.839E-04
RMM:  17    -0.161086381142E+03    0.25318E-07   -0.11993E-06 18486   0.283E-03
   1 F= -.16108638E+03 E0= -.16107662E+03  d E =-.161086E+03
       N       E                     dE             d eps       ncg     rms          rms(c)
DAV:   1    -0.161091272382E+03   -0.48912E-02   -0.10399E-01 32624   0.969E-01    0.755E-02
RMM:   2    -0.161091732173E+03   -0.45979E-03   -0.47314E-03 29673   0.249E-01    0.107E-01
RMM:   3    -0.161091202794E+03    0.52938E-03   -0.12999E-03 29580   0.129E-01    0.325E-02
RMM:   4    -0.161091209878E+03   -0.70839E-05   -0.69124E-04 30795   0.784E-02    0.980E-03
RMM:   5    -0.161091204710E+03    0.51677E-05   -0.25610E-05 29935   0.135E-02    0.676E-03
RMM:   6    -0.161091202930E+03    0.17804E-05   -0.44320E-06 21179   0.686E-03    0.355E-03
RMM:   7    -0.161091201960E+03    0.96956E-06   -0.10889E-05 26180   0.960E-03    0.198E-03
RMM:   8    -0.161091202081E+03   -0.12058E-06   -0.36431E-07 17529   0.228E-03
   2 F= -.16109120E+03 E0= -.16108143E+03  d E =-.482094E-02
       N       E                     dE             d eps       ncg     rms          rms(c)
DAV:   1    -0.161093362022E+03   -0.21601E-02   -0.14880E-01 31966   0.116E+00    0.904E-02
RMM:   2    -0.161093226479E+03    0.13554E-03   -0.22112E-03 29622   0.186E-01    0.615E-03
RMM:   3    -0.161093264704E+03   -0.38225E-04   -0.29349E-04 33465   0.497E-02    0.199E-02
RMM:   4    -0.161093248306E+03    0.16399E-04   -0.52959E-05 29708   0.253E-02    0.781E-03
RMM:   5    -0.161093246887E+03    0.14182E-05   -0.33832E-05 29806   0.175E-02    0.154E-03
RMM:   6    -0.161093246994E+03   -0.10648E-06   -0.11263E-06 18277   0.322E-03
   3 F= -.16109325E+03 E0= -.16108346E+03  d E =-.686585E-02
       N       E                     dE             d eps       ncg     rms          rms(c)
DAV:   1    -0.161093689189E+03   -0.44230E-03   -0.53868E-03 32544   0.230E-01    0.124E-02
RMM:   2    -0.161093718834E+03   -0.29645E-04   -0.31611E-04 29514   0.807E-02    0.833E-03
RMM:   3    -0.161093736938E+03   -0.18104E-04   -0.14712E-04 29530   0.475E-02    0.183E-02
RMM:   4    -0.161093718014E+03    0.18924E-04   -0.57481E-05 29514   0.316E-02    0.364E-03
RMM:   5    -0.161093717380E+03    0.63400E-06   -0.18099E-05 28645   0.103E-02    0.293E-03
RMM:   6    -0.161093717316E+03    0.63834E-07   -0.43533E-07 17116   0.288E-03
   4 F= -.16109372E+03 E0= -.16108393E+03  d E =-.470322E-03
       N       E                     dE             d eps       ncg     rms          rms(c)
DAV:   1    -0.161094041978E+03   -0.32460E-03   -0.36310E-02 31474   0.597E-01    0.325E-02
RMM:   2    -0.161094217166E+03   -0.17519E-03   -0.20061E-03 29512   0.205E-01    0.447E-03
RMM:   3    -0.161094230294E+03   -0.13128E-04   -0.13743E-04 33282   0.456E-02    0.285E-03
RMM:   4    -0.161094230906E+03   -0.61287E-06   -0.82279E-06 25455   0.119E-02
   5 F= -.16109423E+03 E0= -.16108444E+03  d E =-.983913E-03
       N       E                     dE             d eps       ncg     rms          rms(c)
DAV:   1    -0.161094233154E+03   -0.28605E-05   -0.47236E-05 34990   0.218E-02    0.175E-03
RMM:   2    -0.161094233701E+03   -0.54707E-06   -0.11527E-05 28960   0.128E-02    0.495E-03
RMM:   3    -0.161094233305E+03    0.39613E-06   -0.57463E-06 24156   0.921E-03    0.791E-04
RMM:   4    -0.161094233397E+03   -0.91682E-07   -0.10244E-06 15623   0.318E-03
   6 F= -.16109423E+03 E0= -.16108444E+03  d E =-.249023E-05
       N       E                     dE             d eps       ncg     rms          rms(c)
DAV:   1    -0.161094234405E+03   -0.10998E-05   -0.16283E-04 32068   0.399E-02    0.299E-03
RMM:   2    -0.161094234848E+03   -0.44323E-06   -0.77163E-06 28781   0.119E-02    0.148E-03
RMM:   3    -0.161094234814E+03    0.33794E-07   -0.43060E-07 15585   0.275E-03    0.117E-03
RMM:   4    -0.161094234667E+03    0.14701E-06   -0.20625E-07 15319   0.179E-03
   7 F= -.16109423E+03 E0= -.16108445E+03  d E =-.376075E-05
       N       E                     dE             d eps       ncg     rms          rms(c)
DAV:   1    -0.161094234610E+03    0.20376E-06   -0.35948E-07 19198   0.210E-03    0.690E-04
RMM:   2    -0.161094234657E+03   -0.46316E-07   -0.46044E-08 11355   0.116E-03    0.449E-04
RMM:   3    -0.161094234677E+03   -0.20278E-07   -0.21188E-08  5587   0.709E-04    0.327E-04
RMM:   4    -0.161094234650E+03    0.26805E-07   -0.52217E-09  2387   0.647E-04
   8 F= -.16109423E+03 E0= -.16108445E+03  d E =-.374379E-05
       N       E                     dE             d eps       ncg     rms          rms(c)
DAV:   1    -0.161094234643E+03    0.34287E-07   -0.16255E-07 17732   0.123E-03    0.141E-04
RMM:   2    -0.161094234645E+03   -0.21474E-08   -0.39115E-10  2277   0.514E-04    0.154E-04
RMM:   3    -0.161094234687E+03   -0.41681E-07   -0.38195E-10  1435   0.556E-04    0.719E-05
RMM:   4    -0.161094234668E+03    0.18466E-07   -0.42358E-10  1244   0.602E-04
   9 F= -.16109423E+03 E0= -.16108445E+03  d E =-.376167E-05
       N       E                     dE             d eps       ncg     rms          rms(c)
DAV:   1    -0.161094234972E+03   -0.28572E-06   -0.11429E-05 31348   0.105E-02    0.742E-04
RMM:   2    -0.161094234978E+03   -0.56596E-08   -0.45326E-06 22968   0.765E-03    0.328E-03
RMM:   3    -0.161094234796E+03    0.18175E-06   -0.76087E-07 15000   0.444E-03    0.170E-03
RMM:   4    -0.161094235072E+03   -0.27542E-06   -0.10615E-06 14982   0.282E-03
  10 F= -.16109424E+03 E0= -.16108445E+03  d E =-.403516E-06
       N       E                     dE             d eps       ncg     rms          rms(c)
DAV:   1    -0.161094235284E+03   -0.48775E-06   -0.64776E-06 29080   0.772E-03    0.103E-03
RMM:   2    -0.161094235302E+03   -0.18352E-07   -0.23740E-07 15054   0.229E-03    0.713E-04
RMM:   3    -0.161094235085E+03    0.21758E-06   -0.39685E-08  8275   0.981E-04    0.511E-04
RMM:   4    -0.161094235050E+03    0.34770E-07   -0.26899E-07 12578   0.180E-03
  11 F= -.16109424E+03 E0= -.16108445E+03  d E =-.381855E-06
       N       E                     dE             d eps       ncg     rms          rms(c)
DAV:   1    -0.161094235030E+03    0.54667E-07   -0.26601E-06 24230   0.515E-03    0.528E-04
RMM:   2    -0.161094235094E+03   -0.63646E-07   -0.19222E-07 14956   0.197E-03    0.117E-04
RMM:   3    -0.161094235120E+03   -0.25865E-07   -0.84654E-09  3356   0.840E-04    0.703E-05
RMM:   4    -0.161094235114E+03    0.53375E-08   -0.57368E-10   957   0.775E-04
  12 F= -.16109424E+03 E0= -.16108445E+03  d E =-.642769E-07
       N       E                     dE             d eps       ncg     rms          rms(c)
DAV:   1    -0.161094235131E+03   -0.11296E-07   -0.28509E-07 16814   0.179E-03    0.130E-04
RMM:   2    -0.161094235129E+03    0.19243E-08   -0.26215E-09  1809   0.668E-04    0.856E-05
RMM:   3    -0.161094235142E+03   -0.12561E-07   -0.68987E-09  2711   0.684E-04    0.992E-05
RMM:   4    -0.161094235129E+03    0.12488E-07   -0.89643E-12   475   0.589E-04
  13 F= -.16109424E+03 E0= -.16108445E+03  d E =-.790593E-07
