AlO                                     
           1
     4.858861    0.000000    0.000000
     0.000000    8.361352    0.082786
     0.000000    0.085653    8.565251
   Ti   Si
   8  16
Direct configuration=     1
   0.00000000  0.00000000  0.00000000
   0.75000000  0.75000000  0.25000000
   0.00000000  0.50000000  0.50000000
   0.75000000  0.25000000  0.75000000
   0.50000000  0.00000000  0.50000000
   0.25000000  0.75000000  0.75000000
   0.50000000  0.50000000  0.00000000
   0.25000000  0.25000000  0.25000000
   0.00000000  0.33673444  0.00000000
   0.00000000  0.66326559  0.00000000
   0.75000000  0.08673443  0.25000000
   0.75000000  0.41326556  0.25000000
   0.00000000  0.83673441  0.50000000
   0.00000000  0.16326557  0.50000000
   0.75000000  0.58673441  0.75000000
   0.75000000  0.91326559  0.75000000
   0.50000000  0.33673444  0.50000000
   0.50000000  0.66326559  0.50000000
   0.25000000  0.08673443  0.75000000
   0.25000000  0.41326556  0.75000000
   0.50000000  0.83673441  0.00000000
   0.50000000  0.16326557  0.00000000
   0.25000000  0.58673441  0.25000000
   0.25000000  0.91326559  0.25000000
Direct configuration=     2
  -0.00076614 -0.00000000  0.00000000
   0.75076614  0.75000000  0.25000000
  -0.00076614  0.50000000  0.50000000
   0.75076614  0.25000000  0.75000000
   0.49923386 -0.00000000  0.50000000
   0.25076614  0.75000000  0.75000000
   0.49923386  0.50000000  0.00000000
   0.25076614  0.25000000  0.25000000
  -0.00027440  0.33670398 -0.00018456
  -0.00027440  0.66329605  0.00018456
   0.75027440  0.08670396  0.24981544
   0.75027440  0.41329602  0.25018456
  -0.00027440  0.83670395  0.49981544
  -0.00027440  0.16329604  0.50018456
   0.75027440  0.58670395  0.74981544
   0.75027440  0.91329605  0.75018456
   0.49972560  0.33670398  0.49981544
   0.49972560  0.66329605  0.50018456
   0.25027440  0.08670396  0.74981544
   0.25027440  0.41329602  0.75018456
   0.49972560  0.83670395 -0.00018456
   0.49972560  0.16329604  0.00018456
   0.25027440  0.58670395  0.24981544
   0.25027440  0.91329605  0.25018456
Direct configuration=     3
  -0.00168247 -0.00000000  0.00000000
   0.75168247  0.75000000  0.25000000
  -0.00168247  0.50000000  0.50000000
   0.75168247  0.25000000  0.75000000
   0.49831753 -0.00000000  0.50000000
   0.25168247  0.75000000  0.75000000
   0.49831753  0.50000000  0.00000000
   0.25168247  0.25000000  0.25000000
  -0.00060258  0.33666754 -0.00040529
  -0.00060258  0.66333249  0.00040529
   0.75060258  0.08666752  0.24959471
   0.75060258  0.41333246  0.25040529
  -0.00060258  0.83666751  0.49959471
  -0.00060258  0.16333248  0.50040529
   0.75060258  0.58666751  0.74959471
   0.75060258  0.91333249  0.75040529
   0.49939742  0.33666754  0.49959471
   0.49939742  0.66333249  0.50040529
   0.25060258  0.08666752  0.74959471
   0.25060258  0.41333246  0.75040529
   0.49939742  0.83666751 -0.00040529
   0.49939742  0.16333248  0.00040529
   0.25060258  0.58666751  0.24959471
   0.25060258  0.91333249  0.25040529
Direct configuration=     4
  -0.00168906 -0.00000000  0.00000000
   0.75168906  0.75000000  0.25000000
  -0.00168906  0.50000000  0.50000000
   0.75168906  0.25000000  0.75000000
   0.49831094 -0.00000000  0.50000000
   0.25168906  0.75000000  0.75000000
   0.49831094  0.50000000  0.00000000
   0.25168906  0.25000000  0.25000000
  -0.00082130  0.33663926 -0.00036414
  -0.00082130  0.66336077  0.00036414
   0.75082130  0.08663925  0.24963586
   0.75082130  0.41336074  0.25036414
  -0.00082130  0.83663923  0.49963586
  -0.00082130  0.16336075  0.50036414
   0.75082130  0.58663923  0.74963586
   0.75082130  0.91336077  0.75036414
   0.49917870  0.33663926  0.49963586
   0.49917870  0.66336077  0.50036414
   0.25082130  0.08663925  0.74963586
   0.25082130  0.41336074  0.75036414
   0.49917870  0.83663923 -0.00036414
   0.49917870  0.16336075  0.00036414
   0.25082130  0.58663923  0.24963586
   0.25082130  0.91336077  0.25036414
Direct configuration=     5
  -0.00170616  0.00000000  0.00000000
   0.75170616  0.75000000  0.25000000
  -0.00170616  0.50000000  0.50000000
   0.75170616  0.25000000  0.75000000
   0.49829384  0.00000000  0.50000000
   0.25170616  0.75000000  0.75000000
   0.49829384  0.50000000  0.00000000
   0.25170616  0.25000000  0.25000000
  -0.00138925  0.33656583 -0.00025728
  -0.00138925  0.66343420  0.00025728
   0.75138925  0.08656582  0.24974272
   0.75138925  0.41343417  0.25025728
  -0.00138925  0.83656580  0.49974272
  -0.00138925  0.16343418  0.50025728
   0.75138925  0.58656580  0.74974272
   0.75138925  0.91343420  0.75025728
   0.49861075  0.33656583  0.49974272
   0.49861075  0.66343420  0.50025728
   0.25138925  0.08656582  0.74974272
   0.25138925  0.41343417  0.75025728
   0.49861075  0.83656580 -0.00025728
   0.49861075  0.16343418  0.00025728
   0.25138925  0.58656580  0.24974272
   0.25138925  0.91343420  0.25025728
Direct configuration=     6
  -0.00169509  0.00000000  0.00000000
   0.75169509  0.75000000  0.25000000
  -0.00169509  0.50000000  0.50000000
   0.75169509  0.25000000  0.75000000
   0.49830491  0.00000000  0.50000000
   0.25169509  0.75000000  0.75000000
   0.49830491  0.50000000  0.00000000
   0.25169509  0.25000000  0.25000000
  -0.00138959  0.33655707 -0.00026182
  -0.00138959  0.66344296  0.00026182
   0.75138959  0.08655705  0.24973818
   0.75138959  0.41344293  0.25026182
  -0.00138959  0.83655704  0.49973818
  -0.00138959  0.16344295  0.50026182
   0.75138959  0.58655704  0.74973818
   0.75138959  0.91344296  0.75026182
   0.49861041  0.33655707  0.49973818
   0.49861041  0.66344296  0.50026182
   0.25138959  0.08655705  0.74973818
   0.25138959  0.41344293  0.75026182
   0.49861041  0.83655704 -0.00026182
   0.49861041  0.16344295  0.00026182
   0.25138959  0.58655704  0.24973818
   0.25138959  0.91344296  0.25026182
Direct configuration=     7
  -0.00167414  0.00000000  0.00000000
   0.75167414  0.75000000  0.25000000
  -0.00167414  0.50000000  0.50000000
   0.75167414  0.25000000  0.75000000
   0.49832586  0.00000000  0.50000000
   0.25167414  0.75000000  0.75000000
   0.49832586  0.50000000  0.00000000
   0.25167414  0.25000000  0.25000000
  -0.00139023  0.33654047 -0.00027040
  -0.00139023  0.66345956  0.00027040
   0.75139023  0.08654045  0.24972960
   0.75139023  0.41345953  0.25027040
  -0.00139023  0.83654044  0.49972960
  -0.00139023  0.16345955  0.50027040
   0.75139023  0.58654044  0.74972960
   0.75139023  0.91345956  0.75027040
   0.49860977  0.33654047  0.49972960
   0.49860977  0.66345956  0.50027040
   0.25139023  0.08654045  0.74972960
   0.25139023  0.41345953  0.75027040
   0.49860977  0.83654044 -0.00027040
   0.49860977  0.16345955  0.00027040
   0.25139023  0.58654044  0.24972960
   0.25139023  0.91345956  0.25027040
Direct configuration=     8
  -0.00167503  0.00000000  0.00000000
   0.75167503  0.75000000  0.25000000
  -0.00167503  0.50000000  0.50000000
   0.75167503  0.25000000  0.75000000
   0.49832497  0.00000000  0.50000000
   0.25167503  0.75000000  0.75000000
   0.49832497  0.50000000  0.00000000
   0.25167503  0.25000000  0.25000000
  -0.00139021  0.33654118 -0.00027003
  -0.00139021  0.66345885  0.00027003
   0.75139021  0.08654116  0.24972997
   0.75139021  0.41345882  0.25027003
  -0.00139021  0.83654115  0.49972997
  -0.00139021  0.16345884  0.50027003
   0.75139021  0.58654115  0.74972997
   0.75139021  0.91345885  0.75027003
   0.49860979  0.33654118  0.49972997
   0.49860979  0.66345885  0.50027003
   0.25139021  0.08654116  0.74972997
   0.25139021  0.41345882  0.75027003
   0.49860979  0.83654115 -0.00027003
   0.49860979  0.16345884  0.00027003
   0.25139021  0.58654115  0.24972997
   0.25139021  0.91345885  0.25027003
Direct configuration=     9
  -0.00167447  0.00000000  0.00000000
   0.75167447  0.75000000  0.25000000
  -0.00167447  0.50000000  0.50000000
   0.75167447  0.25000000  0.75000000
   0.49832553  0.00000000  0.50000000
   0.25167447  0.75000000  0.75000000
   0.49832553  0.50000000  0.00000000
   0.25167447  0.25000000  0.25000000
  -0.00139022  0.33654073 -0.00027027
  -0.00139022  0.66345930  0.00027027
   0.75139022  0.08654072  0.24972973
   0.75139022  0.41345927  0.25027027
  -0.00139022  0.83654070  0.49972973
  -0.00139022  0.16345928  0.50027027
   0.75139022  0.58654070  0.74972973
   0.75139022  0.91345930  0.75027027
   0.49860978  0.33654073  0.49972973
   0.49860978  0.66345930  0.50027027
   0.25139022  0.08654072  0.74972973
   0.25139022  0.41345927  0.75027027
   0.49860978  0.83654070 -0.00027027
   0.49860978  0.16345928  0.00027027
   0.25139022  0.58654070  0.24972973
   0.25139022  0.91345930  0.25027027
Direct configuration=    10
  -0.00168088  0.00000000  0.00000000
   0.75168088  0.75000000  0.25000000
  -0.00168088  0.50000000  0.50000000
   0.75168088  0.25000000  0.75000000
   0.49831912  0.00000000  0.50000000
   0.25168088  0.75000000  0.75000000
   0.49831912  0.50000000  0.00000000
   0.25168088  0.25000000  0.25000000
  -0.00139055  0.33653654 -0.00026883
  -0.00139055  0.66346349  0.00026883
   0.75139055  0.08653653  0.24973117
   0.75139055  0.41346346  0.25026883
  -0.00139055  0.83653651  0.49973117
  -0.00139055  0.16346347  0.50026883
   0.75139055  0.58653651  0.74973117
   0.75139055  0.91346349  0.75026883
   0.49860945  0.33653654  0.49973117
   0.49860945  0.66346349  0.50026883
   0.25139055  0.08653653  0.74973117
   0.25139055  0.41346346  0.75026883
   0.49860945  0.83653651 -0.00026883
   0.49860945  0.16346347  0.00026883
   0.25139055  0.58653651  0.24973117
   0.25139055  0.91346349  0.25026883
Direct configuration=    11
  -0.00168550  0.00000000  0.00000000
   0.75168550  0.75000000  0.25000000
  -0.00168550  0.50000000  0.50000000
   0.75168550  0.25000000  0.75000000
   0.49831450  0.00000000  0.50000000
   0.25168550  0.75000000  0.75000000
   0.49831450  0.50000000  0.00000000
   0.25168550  0.25000000  0.25000000
  -0.00139078  0.33653353 -0.00026779
  -0.00139078  0.66346650  0.00026779
   0.75139078  0.08653351  0.24973221
   0.75139078  0.41346647  0.25026779
  -0.00139078  0.83653350  0.49973221
  -0.00139078  0.16346649  0.50026779
   0.75139078  0.58653350  0.74973221
   0.75139078  0.91346650  0.75026779
   0.49860922  0.33653353  0.49973221
   0.49860922  0.66346650  0.50026779
   0.25139078  0.08653351  0.74973221
   0.25139078  0.41346647  0.75026779
   0.49860922  0.83653350 -0.00026779
   0.49860922  0.16346649  0.00026779
   0.25139078  0.58653350  0.24973221
   0.25139078  0.91346650  0.25026779
Direct configuration=    12
  -0.00168361  0.00000000  0.00000000
   0.75168361  0.75000000  0.25000000
  -0.00168361  0.50000000  0.50000000
   0.75168361  0.25000000  0.75000000
   0.49831639  0.00000000  0.50000000
   0.25168361  0.75000000  0.75000000
   0.49831639  0.50000000  0.00000000
   0.25168361  0.25000000  0.25000000
  -0.00139174  0.33653259 -0.00026572
  -0.00139174  0.66346744  0.00026572
   0.75139174  0.08653257  0.24973428
   0.75139174  0.41346741  0.25026572
  -0.00139174  0.83653256  0.49973428
  -0.00139174  0.16346743  0.50026572
   0.75139174  0.58653256  0.74973428
   0.75139174  0.91346744  0.75026572
   0.49860826  0.33653259  0.49973428
   0.49860826  0.66346744  0.50026572
   0.25139174  0.08653257  0.74973428
   0.25139174  0.41346741  0.75026572
   0.49860826  0.83653256 -0.00026572
   0.49860826  0.16346743  0.00026572
   0.25139174  0.58653256  0.24973428
   0.25139174  0.91346744  0.25026572
Direct configuration=    13
  -0.00168422  0.00000000  0.00000000
   0.75168422  0.75000000  0.25000000
  -0.00168422  0.50000000  0.50000000
   0.75168422  0.25000000  0.75000000
   0.49831578  0.00000000  0.50000000
   0.25168422  0.75000000  0.75000000
   0.49831578  0.50000000  0.00000000
   0.25168422  0.25000000  0.25000000
  -0.00139143  0.33653289 -0.00026639
  -0.00139143  0.66346714  0.00026639
   0.75139143  0.08653287  0.24973361
   0.75139143  0.41346711  0.25026639
  -0.00139143  0.83653286  0.49973361
  -0.00139143  0.16346713  0.50026639
   0.75139143  0.58653286  0.74973361
   0.75139143  0.91346714  0.75026639
   0.49860857  0.33653289  0.49973361
   0.49860857  0.66346714  0.50026639
   0.25139143  0.08653287  0.74973361
   0.25139143  0.41346711  0.75026639
   0.49860857  0.83653286 -0.00026639
   0.49860857  0.16346713  0.00026639
   0.25139143  0.58653286  0.24973361
   0.25139143  0.91346714  0.25026639
