       N       E                     dE             d eps       ncg     rms          rms(c)
DAV:   1     0.559594780638E+03    0.55959E+03   -0.30458E+04 31192   0.122E+03
DAV:   2    -0.648901701501E+02   -0.62448E+03   -0.60231E+03 31000   0.298E+02
DAV:   3    -0.170241855571E+03   -0.10535E+03   -0.98902E+02 43360   0.104E+02
DAV:   4    -0.175115050768E+03   -0.48732E+01   -0.48070E+01 39504   0.242E+01
DAV:   5    -0.175212230180E+03   -0.97179E-01   -0.96837E-01 39230   0.353E+00    0.195E+01
RMM:   6    -0.163277207531E+03    0.11935E+02   -0.13222E+02 31136   0.414E+01    0.532E+00
RMM:   7    -0.161594061251E+03    0.16831E+01   -0.36883E+00 31017   0.765E+00    0.320E+00
RMM:   8    -0.161649474443E+03   -0.55413E-01   -0.70203E+00 31113   0.894E+00    0.289E+00
RMM:   9    -0.161186761044E+03    0.46271E+00   -0.32503E+00 31000   0.708E+00    0.643E-01
RMM:  10    -0.161168703007E+03    0.18058E-01   -0.11467E-01 31530   0.122E+00    0.342E-01
RMM:  11    -0.161163355052E+03    0.53480E-02   -0.21468E-02 31045   0.588E-01    0.106E-01
RMM:  12    -0.161163382386E+03   -0.27335E-04   -0.71042E-03 32139   0.216E-01    0.339E-02
RMM:  13    -0.161163392291E+03   -0.99046E-05   -0.78054E-04 31250   0.124E-01    0.441E-02
RMM:  14    -0.161163308693E+03    0.83598E-04   -0.38963E-04 31010   0.791E-02    0.777E-03
RMM:  15    -0.161163314817E+03   -0.61241E-05   -0.78745E-05 32477   0.172E-02    0.258E-03
RMM:  16    -0.161163313673E+03    0.11444E-05   -0.26047E-06 21340   0.435E-03    0.579E-04
RMM:  17    -0.161163313804E+03   -0.13075E-06   -0.43145E-07 17981   0.253E-03
   1 F= -.16116331E+03 E0= -.16115389E+03  d E =-.161163E+03
       N       E                     dE             d eps       ncg     rms          rms(c)
DAV:   1    -0.161164517110E+03   -0.12034E-02   -0.20465E-02 34496   0.434E-01    0.302E-02
RMM:   2    -0.161164626603E+03   -0.10949E-03   -0.95104E-04 31028   0.113E-01    0.499E-02
RMM:   3    -0.161164500732E+03    0.12587E-03   -0.80728E-04 31001   0.109E-01    0.673E-03
RMM:   4    -0.161164507414E+03   -0.66819E-05   -0.87429E-05 30976   0.190E-02    0.150E-02
RMM:   5    -0.161164499981E+03    0.74328E-05   -0.55360E-05 31015   0.230E-02    0.151E-03
RMM:   6    -0.161164499753E+03    0.22781E-06   -0.12361E-06 19317   0.298E-03
   2 F= -.16116450E+03 E0= -.16115507E+03  d E =-.118595E-02
       N       E                     dE             d eps       ncg     rms          rms(c)
DAV:   1    -0.161166773461E+03   -0.22735E-02   -0.18414E-01 33400   0.130E+00    0.908E-02
RMM:   2    -0.161166601920E+03    0.17154E-03   -0.20397E-03 31147   0.175E-01    0.151E-02
RMM:   3    -0.161166611341E+03   -0.94214E-05   -0.28075E-04 34159   0.502E-02    0.247E-03
RMM:   4    -0.161166612505E+03   -0.11640E-05   -0.13092E-05 32626   0.127E-02    0.243E-03
RMM:   5    -0.161166612005E+03    0.49982E-06   -0.84610E-07 18824   0.406E-03
   3 F= -.16116661E+03 E0= -.16115715E+03  d E =-.329820E-02
       N       E                     dE             d eps       ncg     rms          rms(c)
DAV:   1    -0.161166895963E+03   -0.28346E-03   -0.41360E-02 33616   0.617E-01    0.430E-02
RMM:   2    -0.161166855067E+03    0.40895E-04   -0.43780E-04 31164   0.811E-02    0.253E-03
RMM:   3    -0.161166860087E+03   -0.50198E-05   -0.50282E-05 35972   0.199E-02    0.518E-04
RMM:   4    -0.161166860114E+03   -0.27314E-07   -0.10498E-06 18917   0.447E-03
   4 F= -.16116686E+03 E0= -.16115738E+03  d E =-.354631E-02
       N       E                     dE             d eps       ncg     rms          rms(c)
DAV:   1    -0.161167198456E+03   -0.33837E-03   -0.68856E-03 33944   0.263E-01    0.147E-02
RMM:   2    -0.161167424540E+03   -0.22608E-03   -0.16212E-03 31015   0.153E-01    0.609E-02
RMM:   3    -0.161167227642E+03    0.19690E-03   -0.58588E-04 31000   0.963E-02    0.144E-02
RMM:   4    -0.161167232502E+03   -0.48598E-05   -0.25105E-04 32533   0.448E-02    0.104E-02
RMM:   5    -0.161167229802E+03    0.27000E-05   -0.62634E-06 23857   0.772E-03    0.804E-03
RMM:   6    -0.161167228324E+03    0.14780E-05   -0.13020E-05 27120   0.134E-02    0.166E-03
RMM:   7    -0.161167228474E+03   -0.14991E-06   -0.17173E-06 19071   0.355E-03
   5 F= -.16116723E+03 E0= -.16115775E+03  d E =-.368360E-03
       N       E                     dE             d eps       ncg     rms          rms(c)
DAV:   1    -0.161167395744E+03   -0.16742E-03   -0.24105E-02 32590   0.492E-01    0.275E-02
RMM:   2    -0.161167492311E+03   -0.96566E-04   -0.11554E-03 31000   0.150E-01    0.384E-03
RMM:   3    -0.161167500389E+03   -0.80781E-05   -0.87167E-05 35644   0.354E-02    0.432E-03
RMM:   4    -0.161167500491E+03   -0.10222E-06   -0.91567E-06 30858   0.124E-02
   6 F= -.16116750E+03 E0= -.16115803E+03  d E =-.640377E-03
       N       E                     dE             d eps       ncg     rms          rms(c)
DAV:   1    -0.161167500486E+03   -0.97152E-07   -0.27284E-06 28002   0.567E-03    0.105E-03
RMM:   2    -0.161167500396E+03    0.90256E-07   -0.22466E-07 16606   0.232E-03    0.668E-04
RMM:   3    -0.161167500366E+03    0.30017E-07   -0.37198E-08 10252   0.107E-03    0.474E-04
RMM:   4    -0.161167500366E+03   -0.15478E-09   -0.28883E-08  7654   0.912E-04
   7 F= -.16116750E+03 E0= -.16115803E+03  d E =-.640251E-03
       N       E                     dE             d eps       ncg     rms          rms(c)
DAV:   1    -0.161167500395E+03   -0.29490E-07   -0.39281E-07 19130   0.230E-03    0.207E-04
RMM:   2    -0.161167500370E+03    0.25081E-07   -0.36102E-08  9813   0.108E-03    0.139E-04
RMM:   3    -0.161167500381E+03   -0.10864E-07   -0.43813E-11  2137   0.708E-04    0.118E-04
RMM:   4    -0.161167500381E+03    0.25858E-09   -0.17123E-10  1742   0.754E-04
   8 F= -.16116750E+03 E0= -.16115803E+03  d E =-.640266E-03
       N       E                     dE             d eps       ncg     rms          rms(c)
DAV:   1    -0.161167500380E+03    0.84037E-09   -0.91859E-08 18788   0.115E-03    0.984E-05
RMM:   2    -0.161167500393E+03   -0.12438E-07    0.00000E+00  1321   0.513E-04    0.315E-05
RMM:   3    -0.161167500403E+03   -0.10593E-07    0.00000E+00  1003   0.452E-04    0.272E-05
RMM:   4    -0.161167500398E+03    0.55478E-08    0.00000E+00   874   0.439E-04
   9 F= -.16116750E+03 E0= -.16115803E+03  d E =-.640283E-03
       N       E                     dE             d eps       ncg     rms          rms(c)
DAV:   1    -0.161167500395E+03    0.81005E-08   -0.26595E-08 17984   0.653E-04    0.723E-05
RMM:   2    -0.161167500392E+03    0.27959E-08    0.00000E+00   953   0.359E-04    0.181E-05
RMM:   3    -0.161167500394E+03   -0.22071E-08    0.00000E+00   777   0.442E-04    0.114E-05
RMM:   4    -0.161167500394E+03    0.77853E-09    0.00000E+00   662   0.454E-04
  10 F= -.16116750E+03 E0= -.16115803E+03  d E =-.640279E-03
       N       E                     dE             d eps       ncg     rms          rms(c)
DAV:   1    -0.161167500394E+03    0.19861E-09   -0.70859E-09 17930   0.439E-04    0.774E-05
RMM:   2    -0.161167500399E+03   -0.52045E-08    0.00000E+00   838   0.290E-04    0.319E-05
RMM:   3    -0.161167500398E+03    0.11103E-08    0.00000E+00   678   0.381E-04    0.132E-05
RMM:   4    -0.161167500399E+03   -0.65381E-09    0.00000E+00   565   0.399E-04
  11 F= -.16116750E+03 E0= -.16115803E+03  d E =-.640285E-03
       N       E                     dE             d eps       ncg     rms          rms(c)
DAV:   1    -0.161167500400E+03   -0.19297E-08   -0.55044E-09 17462   0.415E-04    0.705E-05
RMM:   2    -0.161167500391E+03    0.95342E-08    0.00000E+00   714   0.309E-04    0.236E-05
RMM:   3    -0.161167500391E+03    0.51216E-10    0.00000E+00   538   0.344E-04    0.161E-05
RMM:   4    -0.161167500390E+03    0.43883E-09    0.00000E+00   501   0.388E-04
  12 F= -.16116750E+03 E0= -.16115803E+03  d E =-.640276E-03
       N       E                     dE             d eps       ncg     rms          rms(c)
DAV:   1    -0.161167500932E+03   -0.54174E-06   -0.16036E-05 32376   0.126E-02    0.889E-04
RMM:   2    -0.161167500822E+03    0.11076E-06   -0.14845E-06 15763   0.474E-03    0.133E-03
RMM:   3    -0.161167501153E+03   -0.33178E-06   -0.14179E-06 15806   0.450E-03    0.211E-03
RMM:   4    -0.161167501317E+03   -0.16322E-06   -0.71666E-06 25560   0.119E-02
  13 F= -.16116750E+03 E0= -.16115803E+03  d E =-.926419E-06
       N       E                     dE             d eps       ncg     rms          rms(c)
DAV:   1    -0.161167501070E+03    0.82982E-07   -0.70133E-05 32032   0.271E-02    0.180E-03
RMM:   2    -0.161167501491E+03   -0.42069E-06   -0.33492E-06 20598   0.775E-03    0.213E-03
RMM:   3    -0.161167501264E+03    0.22724E-06   -0.31225E-06 22479   0.771E-03    0.109E-03
RMM:   4    -0.161167501141E+03    0.12272E-06   -0.35328E-07 15747   0.277E-03
  14 F= -.16116750E+03 E0= -.16115803E+03  d E =-.750939E-06
       N       E                     dE             d eps       ncg     rms          rms(c)
DAV:   1    -0.161167501307E+03   -0.42629E-07   -0.90467E-06 32634   0.961E-03    0.125E-03
RMM:   2    -0.161167501289E+03    0.17402E-07   -0.41848E-07 15703   0.306E-03    0.538E-04
RMM:   3    -0.161167501346E+03   -0.57117E-07   -0.77091E-08 15528   0.157E-03    0.825E-04
RMM:   4    -0.161167501274E+03    0.72032E-07   -0.14123E-07 14428   0.182E-03
  15 F= -.16116750E+03 E0= -.16115803E+03  d E =-.883976E-06
