AlO                                     
           1
     4.786699    0.000000    0.024054
     0.000000    8.319959    0.000000
     0.042826    0.000000    8.565251
   Ti   Si
   8  16
Direct configuration=     1
   0.00000000  0.00000000  0.00000000
   0.75000000  0.75000000  0.25000000
   0.00000000  0.50000000  0.50000000
   0.75000000  0.25000000  0.75000000
   0.50000000  0.00000000  0.50000000
   0.25000000  0.75000000  0.75000000
   0.50000000  0.50000000  0.00000000
   0.25000000  0.25000000  0.25000000
   0.00000000  0.33673444  0.00000000
   0.00000000  0.66326559  0.00000000
   0.75000000  0.08673443  0.25000000
   0.75000000  0.41326556  0.25000000
   0.00000000  0.83673441  0.50000000
   0.00000000  0.16326557  0.50000000
   0.75000000  0.58673441  0.75000000
   0.75000000  0.91326559  0.75000000
   0.50000000  0.33673444  0.50000000
   0.50000000  0.66326559  0.50000000
   0.25000000  0.08673443  0.75000000
   0.25000000  0.41326556  0.75000000
   0.50000000  0.83673441  0.00000000
   0.50000000  0.16326557  0.00000000
   0.25000000  0.58673441  0.25000000
   0.25000000  0.91326559  0.25000000
Direct configuration=     2
   0.00000000 -0.00022120 -0.00000000
   0.75000000  0.75022120  0.25000000
   0.00000000  0.49977880  0.50000000
   0.75000000  0.25022120  0.75000000
   0.50000000 -0.00022120  0.50000000
   0.25000000  0.75022120  0.75000000
   0.50000000  0.49977880 -0.00000000
   0.25000000  0.25022120  0.25000000
   0.00000000  0.33665371 -0.00000000
  -0.00000000  0.66315335  0.00000000
   0.75000000  0.08684667  0.25000000
   0.75000000  0.41334629  0.25000000
  -0.00000000  0.83665368  0.50000000
   0.00000000  0.16315333  0.50000000
   0.75000000  0.58684665  0.75000000
   0.75000000  0.91334632  0.75000000
   0.50000000  0.33665371  0.50000000
   0.50000000  0.66315335  0.50000000
   0.25000000  0.08684667  0.75000000
   0.25000000  0.41334629  0.75000000
   0.50000000  0.83665368 -0.00000000
   0.50000000  0.16315333  0.00000000
   0.25000000  0.58684665  0.25000000
   0.25000000  0.91334632  0.25000000
Direct configuration=     3
   0.00000000 -0.00088479 -0.00000000
   0.75000000  0.75088479  0.25000000
   0.00000000  0.49911521  0.50000000
   0.75000000  0.25088479  0.75000000
   0.50000000 -0.00088479  0.50000000
   0.25000000  0.75088479  0.75000000
   0.50000000  0.49911521 -0.00000000
   0.25000000  0.25088479  0.25000000
   0.00000000  0.33641150 -0.00000000
  -0.00000000  0.66281662  0.00000000
   0.75000000  0.08718339  0.25000000
   0.75000000  0.41358850  0.25000000
  -0.00000000  0.83641147  0.50000000
   0.00000000  0.16281661  0.50000000
   0.75000000  0.58718338  0.75000000
   0.75000000  0.91358853  0.75000000
   0.50000000  0.33641150  0.50000000
   0.50000000  0.66281662  0.50000000
   0.25000000  0.08718339  0.75000000
   0.25000000  0.41358850  0.75000000
   0.50000000  0.83641147 -0.00000000
   0.50000000  0.16281661  0.00000000
   0.25000000  0.58718338  0.25000000
   0.25000000  0.91358853  0.25000000
Direct configuration=     4
   0.00000000 -0.00119926 -0.00000000
   0.75000000  0.75119926  0.25000000
   0.00000000  0.49880074  0.50000000
   0.75000000  0.25119926  0.75000000
   0.50000000 -0.00119926  0.50000000
   0.25000000  0.75119926  0.75000000
   0.50000000  0.49880074 -0.00000000
   0.25000000  0.25119926  0.25000000
   0.00000000  0.33629673 -0.00000000
  -0.00000000  0.66265705  0.00000000
   0.75000000  0.08734296  0.25000000
   0.75000000  0.41370327  0.25000000
  -0.00000000  0.83629670  0.50000000
   0.00000000  0.16265704  0.50000000
   0.75000000  0.58734295  0.75000000
   0.75000000  0.91370330  0.75000000
   0.50000000  0.33629673  0.50000000
   0.50000000  0.66265705  0.50000000
   0.25000000  0.08734296  0.75000000
   0.25000000  0.41370327  0.75000000
   0.50000000  0.83629670 -0.00000000
   0.50000000  0.16265704  0.00000000
   0.25000000  0.58734295  0.25000000
   0.25000000  0.91370330  0.25000000
Direct configuration=     5
   0.00000000 -0.00116437 -0.00000000
   0.75000000  0.75116437  0.25000000
   0.00000000  0.49883563  0.50000000
   0.75000000  0.25116437  0.75000000
   0.50000000 -0.00116437  0.50000000
   0.25000000  0.75116437  0.75000000
   0.50000000  0.49883563 -0.00000000
   0.25000000  0.25116437  0.25000000
   0.00000000  0.33615021 -0.00000000
  -0.00000000  0.66248657  0.00000000
   0.75000000  0.08751345  0.25000000
   0.75000000  0.41384979  0.25000000
  -0.00000000  0.83615018  0.50000000
   0.00000000  0.16248655  0.50000000
   0.75000000  0.58751343  0.75000000
   0.75000000  0.91384982  0.75000000
   0.50000000  0.33615021  0.50000000
   0.50000000  0.66248657  0.50000000
   0.25000000  0.08751345  0.75000000
   0.25000000  0.41384979  0.75000000
   0.50000000  0.83615018 -0.00000000
   0.50000000  0.16248655  0.00000000
   0.25000000  0.58751343  0.25000000
   0.25000000  0.91384982  0.25000000
Direct configuration=     6
   0.00000000 -0.00109906 -0.00000000
   0.75000000  0.75109906  0.25000000
  -0.00000000  0.49890094  0.50000000
   0.75000000  0.25109906  0.75000000
   0.50000000 -0.00109906  0.50000000
   0.25000000  0.75109906  0.75000000
   0.50000000  0.49890094 -0.00000000
   0.25000000  0.25109906  0.25000000
   0.00000000  0.33587588 -0.00000000
  -0.00000000  0.66216736  0.00000000
   0.75000000  0.08783265  0.25000000
   0.75000000  0.41412412  0.25000000
  -0.00000000  0.83587585  0.50000000
   0.00000000  0.16216735  0.50000000
   0.75000000  0.58783264  0.75000000
   0.75000000  0.91412415  0.75000000
   0.50000000  0.33587588  0.50000000
   0.50000000  0.66216736  0.50000000
   0.25000000  0.08783265  0.75000000
   0.25000000  0.41412412  0.75000000
   0.50000000  0.83587585 -0.00000000
   0.50000000  0.16216735 -0.00000000
   0.25000000  0.58783264  0.25000000
   0.25000000  0.91412415  0.25000000
Direct configuration=     7
   0.00000000 -0.00109963 -0.00000000
   0.75000000  0.75109963  0.25000000
  -0.00000000  0.49890037  0.50000000
   0.75000000  0.25109963  0.75000000
   0.50000000 -0.00109963  0.50000000
   0.25000000  0.75109963  0.75000000
   0.50000000  0.49890037 -0.00000000
   0.25000000  0.25109963  0.25000000
   0.00000000  0.33587829 -0.00000000
  -0.00000000  0.66217017  0.00000000
   0.75000000  0.08782985  0.25000000
   0.75000000  0.41412171  0.25000000
  -0.00000000  0.83587826  0.50000000
   0.00000000  0.16217015  0.50000000
   0.75000000  0.58782983  0.75000000
   0.75000000  0.91412174  0.75000000
   0.50000000  0.33587829  0.50000000
   0.50000000  0.66217017  0.50000000
   0.25000000  0.08782985  0.75000000
   0.25000000  0.41412171  0.75000000
   0.50000000  0.83587826 -0.00000000
   0.50000000  0.16217015 -0.00000000
   0.25000000  0.58782983  0.25000000
   0.25000000  0.91412174  0.25000000
Direct configuration=     8
   0.00000000 -0.00109931 -0.00000000
   0.75000000  0.75109931  0.25000000
  -0.00000000  0.49890069  0.50000000
   0.75000000  0.25109931  0.75000000
   0.50000000 -0.00109931  0.50000000
   0.25000000  0.75109931  0.75000000
   0.50000000  0.49890069 -0.00000000
   0.25000000  0.25109931  0.25000000
   0.00000000  0.33587692 -0.00000000
  -0.00000000  0.66216857  0.00000000
   0.75000000  0.08783145  0.25000000
   0.75000000  0.41412308  0.25000000
  -0.00000000  0.83587689  0.50000000
   0.00000000  0.16216855  0.50000000
   0.75000000  0.58783143  0.75000000
   0.75000000  0.91412311  0.75000000
   0.50000000  0.33587692  0.50000000
   0.50000000  0.66216857  0.50000000
   0.25000000  0.08783145  0.75000000
   0.25000000  0.41412308  0.75000000
   0.50000000  0.83587689 -0.00000000
   0.50000000  0.16216855 -0.00000000
   0.25000000  0.58783143  0.25000000
   0.25000000  0.91412311  0.25000000
Direct configuration=     9
   0.00000000 -0.00109945 -0.00000000
   0.75000000  0.75109945  0.25000000
  -0.00000000  0.49890055  0.50000000
   0.75000000  0.25109945  0.75000000
   0.50000000 -0.00109945  0.50000000
   0.25000000  0.75109945  0.75000000
   0.50000000  0.49890055 -0.00000000
   0.25000000  0.25109945  0.25000000
   0.00000000  0.33587752 -0.00000000
  -0.00000000  0.66216926  0.00000000
   0.75000000  0.08783075  0.25000000
   0.75000000  0.41412248  0.25000000
  -0.00000000  0.83587749  0.50000000
   0.00000000  0.16216925  0.50000000
   0.75000000  0.58783074  0.75000000
   0.75000000  0.91412251  0.75000000
   0.50000000  0.33587752  0.50000000
   0.50000000  0.66216926  0.50000000
   0.25000000  0.08783075  0.75000000
   0.25000000  0.41412248  0.75000000
   0.50000000  0.83587749 -0.00000000
   0.50000000  0.16216925 -0.00000000
   0.25000000  0.58783074  0.25000000
   0.25000000  0.91412251  0.25000000
Direct configuration=    10
   0.00000000 -0.00109936 -0.00000000
   0.75000000  0.75109936  0.25000000
  -0.00000000  0.49890064  0.50000000
   0.75000000  0.25109936  0.75000000
   0.50000000 -0.00109936  0.50000000
   0.25000000  0.75109936  0.75000000
   0.50000000  0.49890064 -0.00000000
   0.25000000  0.25109936  0.25000000
   0.00000000  0.33587715 -0.00000000
  -0.00000000  0.66216884  0.00000000
   0.75000000  0.08783118  0.25000000
   0.75000000  0.41412285  0.25000000
  -0.00000000  0.83587712  0.50000000
   0.00000000  0.16216882  0.50000000
   0.75000000  0.58783116  0.75000000
   0.75000000  0.91412288  0.75000000
   0.50000000  0.33587715  0.50000000
   0.50000000  0.66216884  0.50000000
   0.25000000  0.08783118  0.75000000
   0.25000000  0.41412285  0.75000000
   0.50000000  0.83587712 -0.00000000
   0.50000000  0.16216882 -0.00000000
   0.25000000  0.58783116  0.25000000
   0.25000000  0.91412288  0.25000000
Direct configuration=    11
   0.00000000 -0.00109940 -0.00000000
   0.75000000  0.75109940  0.25000000
  -0.00000000  0.49890060  0.50000000
   0.75000000  0.25109940  0.75000000
   0.50000000 -0.00109940  0.50000000
   0.25000000  0.75109940  0.75000000
   0.50000000  0.49890060 -0.00000000
   0.25000000  0.25109940  0.25000000
   0.00000000  0.33587733 -0.00000000
  -0.00000000  0.66216905  0.00000000
   0.75000000  0.08783096  0.25000000
   0.75000000  0.41412267  0.25000000
  -0.00000000  0.83587730  0.50000000
   0.00000000  0.16216904  0.50000000
   0.75000000  0.58783095  0.75000000
   0.75000000  0.91412270  0.75000000
   0.50000000  0.33587733  0.50000000
   0.50000000  0.66216905  0.50000000
   0.25000000  0.08783096  0.75000000
   0.25000000  0.41412267  0.75000000
   0.50000000  0.83587730 -0.00000000
   0.50000000  0.16216904 -0.00000000
   0.25000000  0.58783095  0.25000000
   0.25000000  0.91412270  0.25000000
Direct configuration=    12
   0.00000000 -0.00109938 -0.00000000
   0.75000000  0.75109938  0.25000000
  -0.00000000  0.49890062  0.50000000
   0.75000000  0.25109938  0.75000000
   0.50000000 -0.00109938  0.50000000
   0.25000000  0.75109938  0.75000000
   0.50000000  0.49890062 -0.00000000
   0.25000000  0.25109938  0.25000000
   0.00000000  0.33587722 -0.00000000
  -0.00000000  0.66216892  0.00000000
   0.75000000  0.08783109  0.25000000
   0.75000000  0.41412278  0.25000000
  -0.00000000  0.83587719  0.50000000
   0.00000000  0.16216891  0.50000000
   0.75000000  0.58783108  0.75000000
   0.75000000  0.91412281  0.75000000
   0.50000000  0.33587722  0.50000000
   0.50000000  0.66216892  0.50000000
   0.25000000  0.08783109  0.75000000
   0.25000000  0.41412278  0.75000000
   0.50000000  0.83587719 -0.00000000
   0.50000000  0.16216891 -0.00000000
   0.25000000  0.58783108  0.25000000
   0.25000000  0.91412281  0.25000000
Direct configuration=    13
   0.00000000 -0.00110197 -0.00000000
   0.75000000  0.75110197  0.25000000
  -0.00000000  0.49889803  0.50000000
   0.75000000  0.25110197  0.75000000
   0.50000000 -0.00110197  0.50000000
   0.25000000  0.75110197  0.75000000
   0.50000000  0.49889803 -0.00000000
   0.25000000  0.25110197  0.25000000
   0.00000000  0.33586875 -0.00000000
  -0.00000000  0.66217384  0.00000000
   0.75000000  0.08782617  0.25000000
   0.75000000  0.41413125  0.25000000
  -0.00000000  0.83586872  0.50000000
   0.00000000  0.16217383  0.50000000
   0.75000000  0.58782616  0.75000000
   0.75000000  0.91413128  0.75000000
   0.50000000  0.33586875  0.50000000
   0.50000000  0.66217384  0.50000000
   0.25000000  0.08782617  0.75000000
   0.25000000  0.41413125  0.75000000
   0.50000000  0.83586872 -0.00000000
   0.50000000  0.16217383  0.00000000
   0.25000000  0.58782616  0.25000000
   0.25000000  0.91413128  0.25000000
Direct configuration=    14
  -0.00000000 -0.00110729 -0.00000000
   0.75000000  0.75110729  0.25000000
  -0.00000000  0.49889271  0.50000000
   0.75000000  0.25110729  0.75000000
   0.50000000 -0.00110729  0.50000000
   0.25000000  0.75110729  0.75000000
   0.50000000  0.49889271 -0.00000000
   0.25000000  0.25110729  0.25000000
   0.00000000  0.33585131 -0.00000000
  -0.00000000  0.66218396  0.00000000
   0.75000000  0.08781605  0.25000000
   0.75000000  0.41414869  0.25000000
  -0.00000000  0.83585128  0.50000000
   0.00000000  0.16218395  0.50000000
   0.75000000  0.58781604  0.75000000
   0.75000000  0.91414872  0.75000000
   0.50000000  0.33585131  0.50000000
   0.50000000  0.66218396  0.50000000
   0.25000000  0.08781605  0.75000000
   0.25000000  0.41414869  0.75000000
   0.50000000  0.83585128 -0.00000000
   0.50000000  0.16218395  0.00000000
   0.25000000  0.58781604  0.25000000
   0.25000000  0.91414872  0.25000000
Direct configuration=    15
   0.00000000 -0.00110532 -0.00000000
   0.75000000  0.75110532  0.25000000
  -0.00000000  0.49889468  0.50000000
   0.75000000  0.25110532  0.75000000
   0.50000000 -0.00110532  0.50000000
   0.25000000  0.75110532  0.75000000
   0.50000000  0.49889468 -0.00000000
   0.25000000  0.25110532  0.25000000
   0.00000000  0.33585778 -0.00000000
  -0.00000000  0.66218021  0.00000000
   0.75000000  0.08781981  0.25000000
   0.75000000  0.41414222  0.25000000
  -0.00000000  0.83585775  0.50000000
   0.00000000  0.16218019  0.50000000
   0.75000000  0.58781979  0.75000000
   0.75000000  0.91414225  0.75000000
   0.50000000  0.33585778  0.50000000
   0.50000000  0.66218021  0.50000000
   0.25000000  0.08781981  0.75000000
   0.25000000  0.41414222  0.75000000
   0.50000000  0.83585775 -0.00000000
   0.50000000  0.16218019  0.00000000
   0.25000000  0.58781979  0.25000000
   0.25000000  0.91414225  0.25000000
