       N       E                     dE             d eps       ncg     rms          rms(c)
DAV:   1     0.940627852207E+03    0.94063E+03   -0.54137E+04 49056   0.176E+03
DAV:   2     0.320792514050E+01   -0.93742E+03   -0.90637E+03 49056   0.403E+02
DAV:   3    -0.924879103808E+02   -0.95696E+02   -0.90971E+02 51192   0.150E+02
DAV:   4    -0.960993800110E+02   -0.36115E+01   -0.35493E+01 57544   0.287E+01
DAV:   5    -0.961926778313E+02   -0.93298E-01   -0.93060E-01 59272   0.399E+00    0.345E+01
RMM:   6    -0.103570391904E+03   -0.73777E+01   -0.43151E+02 49149   0.124E+02    0.251E+01
RMM:   7    -0.789187461840E+02    0.24652E+02   -0.92764E+01 49056   0.620E+01    0.270E+00
RMM:   8    -0.789919793675E+02   -0.73233E-01   -0.90390E+00 49056   0.157E+01    0.461E+00
RMM:   9    -0.785625407487E+02    0.42944E+00   -0.10042E+00 49057   0.635E+00    0.561E-01
RMM:  10    -0.785568350558E+02    0.57057E-02   -0.32315E-02 49061   0.788E-01    0.300E-01
RMM:  11    -0.785546738355E+02    0.21612E-02   -0.17179E-02 49056   0.548E-01    0.760E-02
RMM:  12    -0.785546193835E+02    0.54452E-04   -0.51363E-04 49058   0.102E-01    0.492E-02
RMM:  13    -0.785546005220E+02    0.18862E-04   -0.21318E-04 49057   0.781E-02    0.242E-02
RMM:  14    -0.785545824144E+02    0.18108E-04   -0.31360E-05 31125   0.348E-02    0.416E-03
RMM:  15    -0.785545826853E+02   -0.27086E-06   -0.64735E-06 27679   0.136E-02
   1 F= -.78554583E+02 E0= -.78549954E+02  d E =-.785546E+02
       N       E                     dE             d eps       ncg     rms          rms(c)
DAV:   1    -0.785553784670E+02   -0.79605E-03   -0.43884E-02 52852   0.769E-01    0.205E-02
RMM:   2    -0.785553897220E+02   -0.11255E-04   -0.20608E-04 49057   0.894E-02    0.180E-02
RMM:   3    -0.785553814099E+02    0.83121E-05   -0.32480E-05 30613   0.273E-02    0.401E-03
RMM:   4    -0.785553809405E+02    0.46936E-06   -0.48680E-06 26034   0.136E-02
   2 F= -.78555381E+02 E0= -.78550769E+02  d E =-.798255E-03
       N       E                     dE             d eps       ncg     rms          rms(c)
DAV:   1    -0.785567037392E+02   -0.13223E-02   -0.39481E-01 50444   0.230E+00    0.622E-02
RMM:   2    -0.785567091117E+02   -0.53725E-05   -0.15756E-03 49056   0.251E-01    0.403E-03
RMM:   3    -0.785567142599E+02   -0.51482E-05   -0.69709E-05 39908   0.380E-02    0.164E-03
RMM:   4    -0.785567151469E+02   -0.88703E-06   -0.69020E-06 27528   0.141E-02
   3 F= -.78556715E+02 E0= -.78552153E+02  d E =-.213246E-02
       N       E                     dE             d eps       ncg     rms          rms(c)
DAV:   1    -0.785567961219E+02   -0.81862E-04   -0.41319E-02 50924   0.745E-01    0.197E-02
RMM:   2    -0.785567979996E+02   -0.18777E-05   -0.16827E-04 48988   0.829E-02    0.175E-03
RMM:   3    -0.785567985109E+02   -0.51137E-06   -0.68427E-06 26891   0.127E-02    0.349E-04
RMM:   4    -0.785567986788E+02   -0.16787E-06   -0.15858E-06 25841   0.652E-03
   4 F= -.78556799E+02 E0= -.78552252E+02  d E =-.221599E-02
       N       E                     dE             d eps       ncg     rms          rms(c)
DAV:   1    -0.785572972605E+02   -0.49875E-03   -0.81395E-02 49680   0.106E+00    0.269E-02
RMM:   2    -0.785573112881E+02   -0.14028E-04   -0.33184E-04 49056   0.120E-01    0.224E-02
RMM:   3    -0.785572964138E+02    0.14874E-04   -0.39997E-05 34497   0.297E-02    0.761E-03
RMM:   4    -0.785572971717E+02   -0.75781E-06   -0.12808E-05 26598   0.185E-02
   5 F= -.78557297E+02 E0= -.78552764E+02  d E =-.498493E-03
       N       E                     dE             d eps       ncg     rms          rms(c)
DAV:   1    -0.785576232559E+02   -0.32684E-03   -0.23188E-01 49332   0.179E+00    0.454E-02
RMM:   2    -0.785576199930E+02    0.32628E-05   -0.89903E-04 49056   0.191E-01    0.925E-03
RMM:   3    -0.785576210661E+02   -0.10731E-05   -0.37976E-05 33854   0.299E-02    0.316E-03
RMM:   4    -0.785576214492E+02   -0.38307E-06   -0.53186E-06 26922   0.122E-02
   6 F= -.78557621E+02 E0= -.78553108E+02  d E =-.822770E-03
       N       E                     dE             d eps       ncg     rms          rms(c)
DAV:   1    -0.785577554678E+02   -0.13440E-03   -0.54424E-02 50352   0.854E-01    0.206E-02
RMM:   2    -0.785577682709E+02   -0.12803E-04   -0.16000E-04 49056   0.808E-02    0.212E-02
RMM:   3    -0.785577889972E+02   -0.20726E-04   -0.35467E-04 49005   0.109E-01    0.396E-02
RMM:   4    -0.785577497878E+02    0.39209E-04   -0.14465E-04 47044   0.750E-02    0.190E-03
RMM:   5    -0.785577504846E+02   -0.69689E-06   -0.32841E-06 25337   0.647E-03
   7 F= -.78557750E+02 E0= -.78553243E+02  d E =-.129035E-03
       N       E                     dE             d eps       ncg     rms          rms(c)
DAV:   1    -0.785578524790E+02   -0.10269E-03   -0.15659E-01 49236   0.145E+00    0.349E-02
RMM:   2    -0.785578345316E+02    0.17947E-04   -0.31769E-04 49056   0.118E-01    0.406E-03
RMM:   3    -0.785578350034E+02   -0.47178E-06   -0.10834E-05 27099   0.177E-02    0.197E-03
RMM:   4    -0.785578352278E+02   -0.22447E-06   -0.22897E-06 25866   0.925E-03
   8 F= -.78557835E+02 E0= -.78553338E+02  d E =-.213779E-03
       N       E                     dE             d eps       ncg     rms          rms(c)
DAV:   1    -0.785578784932E+02   -0.43490E-04   -0.22416E-02 49772   0.551E-01    0.139E-02
RMM:   2    -0.785578780093E+02    0.48389E-06   -0.66479E-05 47166   0.522E-02    0.851E-03
RMM:   3    -0.785578815239E+02   -0.35146E-05   -0.10088E-05 25560   0.187E-02    0.151E-02
RMM:   4    -0.785578758911E+02    0.56329E-05   -0.16081E-05 25252   0.267E-02
   9 F= -.78557876E+02 E0= -.78553381E+02  d E =-.406632E-04
       N       E                     dE             d eps       ncg     rms          rms(c)
DAV:   1    -0.785578886699E+02   -0.71460E-05   -0.17634E-02 49620   0.489E-01    0.123E-02
RMM:   2    -0.785578865710E+02    0.20989E-05   -0.46046E-05 37752   0.446E-02    0.183E-03
RMM:   3    -0.785578871449E+02   -0.57389E-06   -0.30843E-06 25416   0.911E-03    0.957E-04
RMM:   4    -0.785578873668E+02   -0.22196E-06   -0.63377E-07 22738   0.485E-03
  10 F= -.78557887E+02 E0= -.78553396E+02  d E =-.521390E-04
       N       E                     dE             d eps       ncg     rms          rms(c)
DAV:   1    -0.785578987891E+02   -0.11644E-04   -0.55001E-03 50152   0.274E-01    0.694E-03
RMM:   2    -0.785579038859E+02   -0.50968E-05   -0.43355E-05 36199   0.421E-02    0.158E-02
RMM:   3    -0.785579053898E+02   -0.15039E-05   -0.50442E-06 24993   0.115E-02    0.149E-02
RMM:   4    -0.785578993202E+02    0.60695E-05   -0.16267E-05 24829   0.259E-02
  11 F= -.78557899E+02 E0= -.78553408E+02  d E =-.119534E-04
       N       E                     dE             d eps       ncg     rms          rms(c)
DAV:   1    -0.785578951810E+02    0.10209E-04   -0.46736E-05 43716   0.277E-02    0.223E-03
RMM:   2    -0.785578949860E+02    0.19503E-06   -0.10851E-06 24392   0.591E-03    0.758E-04
RMM:   3    -0.785578949991E+02   -0.13184E-07   -0.46006E-08  6043   0.153E-03    0.541E-04
RMM:   4    -0.785578949988E+02    0.29888E-09   -0.18683E-09  2020   0.201E-03
  12 F= -.78557895E+02 E0= -.78553404E+02  d E =-.763200E-05
       N       E                     dE             d eps       ncg     rms          rms(c)
DAV:   1    -0.785578986677E+02   -0.36686E-05   -0.68946E-06 25752   0.982E-03    0.737E-04
RMM:   2    -0.785578986776E+02   -0.98472E-08   -0.25703E-07 19133   0.351E-03    0.150E-04
RMM:   3    -0.785578986703E+02    0.73088E-08   -0.36929E-11   771   0.125E-03    0.756E-05
RMM:   4    -0.785578986656E+02    0.46949E-08   -0.27778E-10   588   0.127E-03
  13 F= -.78557899E+02 E0= -.78553408E+02  d E =-.112987E-04
       N       E                     dE             d eps       ncg     rms          rms(c)
DAV:   1    -0.785578986578E+02    0.12424E-07   -0.17745E-06 25276   0.500E-03    0.233E-04
RMM:   2    -0.785578986525E+02    0.53284E-08   -0.52740E-09  1388   0.206E-03    0.201E-04
RMM:   3    -0.785578986520E+02    0.50215E-09   -0.23307E-08  3054   0.217E-03    0.301E-04
RMM:   4    -0.785578986456E+02    0.64138E-08    0.00000E+00   340   0.164E-03
  14 F= -.78557899E+02 E0= -.78553408E+02  d E =-.112787E-04
       N       E                     dE             d eps       ncg     rms          rms(c)
DAV:   1    -0.785578986568E+02   -0.48314E-08   -0.45314E-07 25108   0.276E-03    0.235E-04
RMM:   2    -0.785578986597E+02   -0.28423E-08    0.00000E+00   549   0.134E-03    0.123E-04
RMM:   3    -0.785578986670E+02   -0.73375E-08    0.00000E+00   359   0.143E-03    0.805E-05
RMM:   4    -0.785578986624E+02    0.46415E-08    0.00000E+00   266   0.150E-03
  15 F= -.78557899E+02 E0= -.78553408E+02  d E =-.112955E-04
       N       E                     dE             d eps       ncg     rms          rms(c)
DAV:   1    -0.785578986662E+02    0.76500E-09   -0.11682E-07 24984   0.194E-03    0.271E-04
RMM:   2    -0.785578986609E+02    0.53655E-08    0.00000E+00   385   0.143E-03    0.262E-05
RMM:   3    -0.785578986577E+02    0.31416E-08    0.00000E+00   277   0.149E-03    0.289E-05
RMM:   4    -0.785578986595E+02   -0.17870E-08    0.00000E+00   227   0.145E-03
  16 F= -.78557899E+02 E0= -.78553408E+02  d E =-.112927E-04
       N       E                     dE             d eps       ncg     rms          rms(c)
DAV:   1    -0.785578986639E+02   -0.61526E-08   -0.47683E-08 24892   0.143E-03    0.260E-04
RMM:   2    -0.785578986635E+02    0.35652E-09    0.00000E+00   330   0.977E-04    0.273E-05
RMM:   3    -0.785578986640E+02   -0.50716E-09    0.00000E+00   242   0.101E-03    0.180E-05
RMM:   4    -0.785578986645E+02   -0.46407E-09    0.00000E+00   193   0.103E-03
  17 F= -.78557899E+02 E0= -.78553408E+02  d E =-.112977E-04
       N       E                     dE             d eps       ncg     rms          rms(c)
DAV:   1    -0.785578986669E+02   -0.28674E-08   -0.27039E-08 24876   0.110E-03    0.202E-04
RMM:   2    -0.785578986621E+02    0.48399E-08    0.00000E+00   285   0.812E-04    0.119E-05
RMM:   3    -0.785578986627E+02   -0.60686E-09    0.00000E+00   211   0.827E-04    0.559E-06
RMM:   4    -0.785578986626E+02    0.45247E-10    0.00000E+00   171   0.839E-04
  18 F= -.78557899E+02 E0= -.78553408E+02  d E =-.112958E-04
       N       E                     dE             d eps       ncg     rms          rms(c)
DAV:   1    -0.785578986636E+02   -0.88170E-09   -0.13818E-08 24836   0.842E-04    0.151E-04
RMM:   2    -0.785578986656E+02   -0.20706E-08    0.00000E+00   239   0.553E-04    0.345E-06
RMM:   3    -0.785578986654E+02    0.22862E-09    0.00000E+00   184   0.553E-04    0.195E-06
RMM:   4    -0.785578986654E+02    0.11880E-10    0.00000E+00   151   0.557E-04
  19 F= -.78557899E+02 E0= -.78553408E+02  d E =-.112985E-04
       N       E                     dE             d eps       ncg     rms          rms(c)
DAV:   1    -0.785578957031E+02    0.29623E-05   -0.55822E-04 49228   0.870E-02    0.205E-03
RMM:   2    -0.785578955570E+02    0.14608E-06   -0.15416E-06 24548   0.861E-03    0.215E-03
RMM:   3    -0.785578961274E+02   -0.57043E-06   -0.23458E-06 24527   0.983E-03    0.304E-03
RMM:   4    -0.785578957663E+02    0.36115E-06   -0.16837E-06 23809   0.908E-03
  20 F= -.78557896E+02 E0= -.78553405E+02  d E =0.289911E-05
