AlCu                                    
           1
    12.119773   -0.121198    0.008568
    -0.041047    4.022637    0.000000
    -3.973711    0.039737    5.684858
   Al   Cu
  10  10
Direct configuration=     1
   0.50000000  0.00000000  0.50000000
   0.15587366  0.00000000  0.46137374
   0.84412632  0.00000000  0.53862623
   0.87805559  0.50000000  0.99541334
   0.12194440  0.50000000  0.00458663
   0.00000000  0.50000000  0.50000000
   0.65587368  0.50000000  0.46137374
   0.34412635  0.50000000  0.53862623
   0.37805559  0.00000000  0.99541334
   0.62194441  0.00000000  0.00458663
   0.00000000  0.00000000  0.00000000
   0.25805145  0.00000000  0.24172886
   0.74194852  0.00000000  0.75827112
   0.10866387  0.00000000  0.77167894
   0.89133614  0.00000000  0.22832103
   0.50000000  0.50000000  0.00000000
   0.75805148  0.50000000  0.24172886
   0.24194855  0.50000000  0.75827112
   0.60866386  0.50000000  0.77167894
   0.39133614  0.50000000  0.22832103
Direct configuration=     2
   0.50000000 -0.00000000  0.50000000
   0.15575372  0.00005415  0.46104375
   0.84424627 -0.00005415  0.53895622
   0.87803811  0.49980737  0.99545583
   0.12196188  0.50019263  0.00454415
   0.00000000  0.50000000  0.50000000
   0.65575373  0.50005415  0.46104375
   0.34424630  0.49994585  0.53895622
   0.37803811 -0.00019263  0.99545583
   0.62196189  0.00019263  0.00454415
   0.00000000 -0.00000000  0.00000000
   0.25807707 -0.00004862  0.24194388
   0.74192290  0.00004862  0.75805611
   0.10867105 -0.00003866  0.77174700
   0.89132896  0.00003866  0.22825297
   0.50000000  0.50000000  0.00000000
   0.75807710  0.49995138  0.24194388
   0.24192293  0.50004862  0.75805611
   0.60867104  0.49996134  0.77174700
   0.39132896  0.50003866  0.22825297
Direct configuration=     3
   0.50000000 -0.00000000  0.50000000
   0.15539389  0.00021661  0.46005378
   0.84460609 -0.00021661  0.53994619
   0.87798566  0.49922947  0.99558328
   0.12201433  0.50077053  0.00441669
   0.00000000  0.50000000  0.50000000
   0.65539391  0.50021661  0.46005378
   0.34460612  0.49978339  0.53994619
   0.37798566 -0.00077053  0.99558328
   0.62201434  0.00077053  0.00441669
   0.00000000 -0.00000000  0.00000000
   0.25815392 -0.00019446  0.24258891
   0.74184605  0.00019446  0.75741108
   0.10869260 -0.00015463  0.77195120
   0.89130741  0.00015463  0.22804877
   0.50000000  0.50000000  0.00000000
   0.75815395  0.49980554  0.24258891
   0.24184608  0.50019446  0.75741108
   0.60869259  0.49984537  0.77195120
   0.39130741  0.50015463  0.22804877
Direct configuration=     4
   0.50000000 -0.00000000  0.50000000
   0.15527753  0.00026915  0.45973364
   0.84472245 -0.00026915  0.54026633
   0.87796870  0.49904259  0.99562450
   0.12203130  0.50095741  0.00437548
   0.00000000  0.50000000  0.50000000
   0.65527755  0.50026915  0.45973364
   0.34472248  0.49973085  0.54026633
   0.37796870 -0.00095741  0.99562450
   0.62203130  0.00095741  0.00437548
   0.00000000 -0.00000000  0.00000000
   0.25817878 -0.00024163  0.24279750
   0.74182119  0.00024163  0.75720248
   0.10869957 -0.00019213  0.77201723
   0.89130045  0.00019213  0.22798274
   0.50000000  0.50000000  0.00000000
   0.75817881  0.49975837  0.24279750
   0.24182122  0.50024163  0.75720248
   0.60869955  0.49980787  0.77201723
   0.39130045  0.50019213  0.22798274
Direct configuration=     5
   0.50000000 -0.00000000  0.50000000
   0.15503032  0.00037236  0.45945334
   0.84496966 -0.00037236  0.54054663
   0.87790314  0.49917414  0.99559323
   0.12209685  0.50082586  0.00440674
   0.00000000  0.50000000  0.50000000
   0.65503034  0.50037236  0.45945334
   0.34496969  0.49962764  0.54054663
   0.37790314 -0.00082586  0.99559323
   0.62209686  0.00082586  0.00440674
   0.00000000 -0.00000000  0.00000000
   0.25827373 -0.00013237  0.24303402
   0.74172624  0.00013237  0.75696597
   0.10880867 -0.00003006  0.77205978
   0.89119134  0.00003006  0.22794019
   0.50000000  0.50000000  0.00000000
   0.75827376  0.49986763  0.24303402
   0.24172627  0.50013237  0.75696597
   0.60880866  0.49996994  0.77205978
   0.39119134  0.50003006  0.22794019
Direct configuration=     6
   0.50000000 -0.00000000  0.50000000
   0.15461309  0.00054657  0.45898027
   0.84538690 -0.00054657  0.54101970
   0.87779250  0.49939617  0.99554046
   0.12220750  0.50060383  0.00445951
   0.00000000  0.50000000  0.50000000
   0.65461310  0.50054657  0.45898027
   0.34538693  0.49945343  0.54101970
   0.37779250 -0.00060383  0.99554046
   0.62220750  0.00060383  0.00445951
   0.00000000 -0.00000000  0.00000000
   0.25843399  0.00005202  0.24343319
   0.74156598 -0.00005202  0.75656679
   0.10899281  0.00024347  0.77213159
   0.89100721 -0.00024347  0.22786838
   0.50000000  0.50000000  0.00000000
   0.75843402  0.50005202  0.24343319
   0.24156601  0.49994798  0.75656679
   0.60899279  0.50024347  0.77213159
   0.39100721  0.49975653  0.22786838
Direct configuration=     7
   0.50000000  0.00000000  0.50000000
   0.15454945  0.00057273  0.45891917
   0.84545053 -0.00057273  0.54108080
   0.87774514  0.49936363  0.99541977
   0.12225486  0.50063637  0.00458020
   0.00000000  0.50000000  0.50000000
   0.65454947  0.50057273  0.45891917
   0.34545056  0.49942727  0.54108080
   0.37774514 -0.00063637  0.99541977
   0.62225486  0.00063637  0.00458020
   0.00000000  0.00000000  0.00000000
   0.25839084 -0.00003703  0.24343728
   0.74160913  0.00003703  0.75656271
   0.10914049  0.00020067  0.77228934
   0.89085953 -0.00020067  0.22771063
   0.50000000  0.50000000  0.00000000
   0.75839087  0.49996297  0.24343728
   0.24160916  0.50003703  0.75656271
   0.60914047  0.50020067  0.77228934
   0.39085953  0.49979933  0.22771063
Direct configuration=     8
   0.50000000  0.00000000  0.50000000
   0.15444151  0.00061712  0.45881552
   0.84555848 -0.00061712  0.54118445
   0.87766480  0.49930843  0.99521504
   0.12233520  0.50069157  0.00478494
   0.00000000  0.50000000  0.50000000
   0.65444152  0.50061712  0.45881552
   0.34555851  0.49938288  0.54118445
   0.37766480 -0.00069157  0.99521504
   0.62233520  0.00069157  0.00478494
   0.00000000  0.00000000  0.00000000
   0.25831765 -0.00018810  0.24344421
   0.74168232  0.00018810  0.75655578
   0.10939101  0.00012806  0.77255693
   0.89060901 -0.00012806  0.22744304
   0.50000000  0.50000000  0.00000000
   0.75831768  0.49981190  0.24344421
   0.24168235  0.50018810  0.75655578
   0.60939099  0.50012806  0.77255693
   0.39060901  0.49987194  0.22744304
Direct configuration=     9
   0.50000000  0.00000000  0.50000000
   0.15444131  0.00064688  0.45882088
   0.84555868 -0.00064688  0.54117909
   0.87771394  0.49940264  0.99518501
   0.12228605  0.50059736  0.00481497
   0.00000000  0.50000000  0.50000000
   0.65444132  0.50064688  0.45882088
   0.34555871  0.49935312  0.54117909
   0.37771394 -0.00059736  0.99518501
   0.62228606  0.00059736  0.00481497
   0.00000000  0.00000000  0.00000000
   0.25833618 -0.00020371  0.24353179
   0.74166379  0.00020371  0.75646819
   0.10946631  0.00012942  0.77270358
   0.89053371 -0.00012942  0.22729639
   0.50000000  0.50000000  0.00000000
   0.75833621  0.49979629  0.24353179
   0.24166382  0.50020371  0.75646819
   0.60946629  0.50012942  0.77270358
   0.39053371  0.49987058  0.22729639
Direct configuration=    10
   0.50000000  0.00000000  0.50000000
   0.15444113  0.00067328  0.45882563
   0.84555886 -0.00067328  0.54117434
   0.87775754  0.49948622  0.99515837
   0.12224246  0.50051378  0.00484161
   0.00000000  0.50000000  0.50000000
   0.65444114  0.50067328  0.45882563
   0.34555889  0.49932672  0.54117434
   0.37775754 -0.00051378  0.99515837
   0.62224246  0.00051378  0.00484161
   0.00000000  0.00000000  0.00000000
   0.25835263 -0.00021755  0.24360949
   0.74164734  0.00021755  0.75639049
   0.10953311  0.00013063  0.77283367
   0.89046690 -0.00013063  0.22716630
   0.50000000  0.50000000  0.00000000
   0.75835266  0.49978245  0.24360949
   0.24164737  0.50021755  0.75639049
   0.60953310  0.50013063  0.77283367
   0.39046690  0.49986937  0.22716630
Direct configuration=    11
   0.50000000  0.00000000  0.50000000
   0.15442300  0.00067593  0.45886387
   0.84557698 -0.00067593  0.54113610
   0.87778653  0.49942614  0.99516887
   0.12221346  0.50057386  0.00483110
   0.00000000  0.50000000  0.50000000
   0.65442302  0.50067593  0.45886387
   0.34557701  0.49932407  0.54113610
   0.37778653 -0.00057386  0.99516887
   0.62221347  0.00057386  0.00483110
   0.00000000  0.00000000  0.00000000
   0.25837716 -0.00025717  0.24363865
   0.74162281  0.00025717  0.75636133
   0.10955200  0.00009460  0.77290159
   0.89044801 -0.00009460  0.22709838
   0.50000000  0.50000000  0.00000000
   0.75837719  0.49974283  0.24363865
   0.24162284  0.50025717  0.75636133
   0.60955199  0.50009460  0.77290159
   0.39044801  0.49990540  0.22709838
Direct configuration=    12
   0.50000000  0.00000000  0.50000000
   0.15442462  0.00067570  0.45886047
   0.84557537 -0.00067570  0.54113950
   0.87778395  0.49943149  0.99516794
   0.12221604  0.50056851  0.00483204
   0.00000000  0.50000000  0.50000000
   0.65442463  0.50067570  0.45886047
   0.34557540  0.49932430  0.54113950
   0.37778395 -0.00056851  0.99516794
   0.62221605  0.00056851  0.00483204
   0.00000000  0.00000000  0.00000000
   0.25837497 -0.00025364  0.24363606
   0.74162500  0.00025364  0.75636393
   0.10955032  0.00009781  0.77289555
   0.89044969 -0.00009781  0.22710442
   0.50000000  0.50000000  0.00000000
   0.75837500  0.49974636  0.24363606
   0.24162503  0.50025364  0.75636393
   0.60955031  0.50009781  0.77289555
   0.39044969  0.49990219  0.22710442
Direct configuration=    13
   0.50000000  0.00000000  0.50000000
   0.15442397  0.00067579  0.45886184
   0.84557602 -0.00067579  0.54113813
   0.87778499  0.49942933  0.99516832
   0.12221500  0.50057067  0.00483166
   0.00000000  0.50000000  0.50000000
   0.65442398  0.50067579  0.45886184
   0.34557605  0.49932421  0.54113813
   0.37778499 -0.00057067  0.99516832
   0.62221501  0.00057067  0.00483166
   0.00000000  0.00000000  0.00000000
   0.25837585 -0.00025506  0.24363710
   0.74162412  0.00025506  0.75636288
   0.10955100  0.00009652  0.77289798
   0.89044901 -0.00009652  0.22710199
   0.50000000  0.50000000  0.00000000
   0.75837588  0.49974494  0.24363710
   0.24162415  0.50025506  0.75636288
   0.60955099  0.50009652  0.77289798
   0.39044901  0.49990348  0.22710199
Direct configuration=    14
   0.50000000  0.00000000  0.50000000
   0.15442431  0.00067574  0.45886112
   0.84557568 -0.00067574  0.54113885
   0.87778444  0.49943047  0.99516812
   0.12221555  0.50056953  0.00483186
   0.00000000  0.50000000  0.50000000
   0.65442432  0.50067574  0.45886112
   0.34557571  0.49932426  0.54113885
   0.37778444 -0.00056953  0.99516812
   0.62221556  0.00056953  0.00483186
   0.00000000  0.00000000  0.00000000
   0.25837539 -0.00025431  0.24363655
   0.74162458  0.00025431  0.75636344
   0.10955064  0.00009720  0.77289670
   0.89044937 -0.00009720  0.22710327
   0.50000000  0.50000000  0.00000000
   0.75837542  0.49974569  0.24363655
   0.24162461  0.50025431  0.75636344
   0.60955063  0.50009720  0.77289670
   0.39044937  0.49990280  0.22710327
Direct configuration=    15
   0.50000000  0.00000000  0.50000000
   0.15442414  0.00067577  0.45886148
   0.84557585 -0.00067577  0.54113849
   0.87778472  0.49942990  0.99516822
   0.12221528  0.50057010  0.00483176
   0.00000000  0.50000000  0.50000000
   0.65442415  0.50067577  0.45886148
   0.34557588  0.49932423  0.54113849
   0.37778472 -0.00057010  0.99516822
   0.62221528  0.00057010  0.00483176
   0.00000000  0.00000000  0.00000000
   0.25837562 -0.00025469  0.24363683
   0.74162435  0.00025469  0.75636316
   0.10955082  0.00009686  0.77289734
   0.89044919 -0.00009686  0.22710263
   0.50000000  0.50000000  0.00000000
   0.75837565  0.49974531  0.24363683
   0.24162438  0.50025469  0.75636316
   0.60955081  0.50009686  0.77289734
   0.39044919  0.49990314  0.22710263
Direct configuration=    16
   0.50000000  0.00000000  0.50000000
   0.15442423  0.00067575  0.45886129
   0.84557576 -0.00067575  0.54113869
   0.87778457  0.49943021  0.99516816
   0.12221542  0.50056979  0.00483181
   0.00000000  0.50000000  0.50000000
   0.65442424  0.50067575  0.45886129
   0.34557579  0.49932425  0.54113869
   0.37778457 -0.00056979  0.99516816
   0.62221543  0.00056979  0.00483181
   0.00000000  0.00000000  0.00000000
   0.25837550 -0.00025449  0.24363668
   0.74162447  0.00025449  0.75636331
   0.10955072  0.00009704  0.77289699
   0.89044929 -0.00009704  0.22710298
   0.50000000  0.50000000  0.00000000
   0.75837553  0.49974551  0.24363668
   0.24162450  0.50025449  0.75636331
   0.60955071  0.50009704  0.77289699
   0.39044929  0.49990296  0.22710298
Direct configuration=    17
   0.50000000  0.00000000  0.50000000
   0.15442418  0.00067576  0.45886140
   0.84557581 -0.00067576  0.54113858
   0.87778465  0.49943004  0.99516819
   0.12221534  0.50056996  0.00483178
   0.00000000  0.50000000  0.50000000
   0.65442419  0.50067576  0.45886140
   0.34557584  0.49932424  0.54113858
   0.37778465 -0.00056996  0.99516819
   0.62221535  0.00056996  0.00483178
   0.00000000  0.00000000  0.00000000
   0.25837557 -0.00025460  0.24363676
   0.74162440  0.00025460  0.75636323
   0.10955078  0.00009694  0.77289719
   0.89044924 -0.00009694  0.22710278
   0.50000000  0.50000000  0.00000000
   0.75837560  0.49974540  0.24363676
   0.24162443  0.50025460  0.75636323
   0.60955076  0.50009694  0.77289719
   0.39044924  0.49990306  0.22710278
Direct configuration=    18
   0.50000000  0.00000000  0.50000000
   0.15442421  0.00067575  0.45886132
   0.84557577 -0.00067575  0.54113865
   0.87778459  0.49943016  0.99516817
   0.12221540  0.50056984  0.00483180
   0.00000000  0.50000000  0.50000000
   0.65442423  0.50067575  0.45886132
   0.34557580  0.49932425  0.54113865
   0.37778459 -0.00056984  0.99516817
   0.62221541  0.00056984  0.00483180
   0.00000000  0.00000000  0.00000000
   0.25837552 -0.00025452  0.24363670
   0.74162445  0.00025452  0.75636328
   0.10955074  0.00009701  0.77289705
   0.89044927 -0.00009701  0.22710292
   0.50000000  0.50000000  0.00000000
   0.75837555  0.49974548  0.24363670
   0.24162448  0.50025452  0.75636328
   0.60955073  0.50009701  0.77289705
   0.39044927  0.49990299  0.22710292
Direct configuration=    19
   0.50000000  0.00000000  0.50000000
   0.15442419  0.00067576  0.45886136
   0.84557579 -0.00067576  0.54113861
   0.87778463  0.49943009  0.99516818
   0.12221537  0.50056991  0.00483179
   0.00000000  0.50000000  0.50000000
   0.65442421  0.50067576  0.45886136
   0.34557582  0.49932424  0.54113861
   0.37778463 -0.00056991  0.99516818
   0.62221537  0.00056991  0.00483179
   0.00000000  0.00000000  0.00000000
   0.25837554 -0.00025456  0.24363673
   0.74162443  0.00025456  0.75636325
   0.10955076  0.00009697  0.77289713
   0.89044925 -0.00009697  0.22710284
   0.50000000  0.50000000  0.00000000
   0.75837557  0.49974544  0.24363673
   0.24162446  0.50025456  0.75636325
   0.60955075  0.50009697  0.77289713
   0.39044925  0.49990303  0.22710284
Direct configuration=    20
   0.50000000  0.00000000  0.50000000
   0.15442192  0.00068202  0.45886755
   0.84557807 -0.00068202  0.54113242
   0.87778489  0.49942629  0.99517064
   0.12221511  0.50057371  0.00482933
   0.00000000  0.50000000  0.50000000
   0.65442193  0.50068202  0.45886755
   0.34557810  0.49931798  0.54113242
   0.37778489 -0.00057371  0.99517064
   0.62221511  0.00057371  0.00482933
   0.00000000  0.00000000  0.00000000
   0.25836858 -0.00024334  0.24362845
   0.74163139  0.00024334  0.75637154
   0.10954987  0.00011132  0.77291461
   0.89045015 -0.00011132  0.22708536
   0.50000000  0.50000000  0.00000000
   0.75836861  0.49975666  0.24362845
   0.24163142  0.50024334  0.75637154
   0.60954985  0.50011132  0.77291461
   0.39045015  0.49988868  0.22708536
