       N       E                     dE             d eps       ncg     rms          rms(c)
DAV:   1     0.347703502766E+02    0.34770E+02   -0.38986E+03 16464   0.661E+02
DAV:   2    -0.125370667663E+02   -0.47307E+02   -0.44535E+02 20868   0.105E+02
DAV:   3    -0.153061495736E+02   -0.27691E+01   -0.26558E+01 22232   0.275E+01
DAV:   4    -0.153519535497E+02   -0.45804E-01   -0.45547E-01 19908   0.350E+00
DAV:   5    -0.153527201503E+02   -0.76660E-03   -0.76598E-03 22104   0.405E-01    0.148E+00
RMM:   6    -0.153154667846E+02    0.37253E-01   -0.90420E-03 16464   0.727E-01    0.922E-01
RMM:   7    -0.152920093900E+02    0.23457E-01   -0.28168E-02 16464   0.128E+00    0.620E-02
RMM:   8    -0.152922307841E+02   -0.22139E-03   -0.75646E-04 16615   0.222E-01    0.162E-02
RMM:   9    -0.152922427441E+02   -0.11960E-04   -0.40093E-05 16952   0.433E-02    0.570E-03
RMM:  10    -0.152922563656E+02   -0.13621E-04   -0.90464E-06 15340   0.186E-02    0.140E-03
RMM:  11    -0.152922570117E+02   -0.64609E-06   -0.23911E-07  9887   0.334E-03
   1 F= -.15292257E+02 E0= -.15290295E+02  d E =-.152923E+02
       N       E                     dE             d eps       ncg     rms          rms(c)
DAV:   1    -0.152922955026E+02   -0.39137E-04   -0.18990E-04 20376   0.771E-02    0.267E-03
RMM:   2    -0.152922969632E+02   -0.14607E-05   -0.12185E-05 14673   0.185E-02    0.103E-03
RMM:   3    -0.152922970268E+02   -0.63600E-07   -0.34794E-07  7491   0.345E-03    0.591E-04
RMM:   4    -0.152922971305E+02   -0.10368E-06   -0.61857E-08  4703   0.198E-03
   2 F= -.15292297E+02 E0= -.15290336E+02  d E =-.401189E-04
       N       E                     dE             d eps       ncg     rms          rms(c)
DAV:   1    -0.152923788607E+02   -0.81834E-04   -0.17238E-03 18668   0.232E-01    0.789E-03
RMM:   2    -0.152923881524E+02   -0.92917E-05   -0.11438E-04 16426   0.572E-02    0.456E-04
RMM:   3    -0.152923889292E+02   -0.77686E-06   -0.37415E-06 11519   0.885E-03    0.467E-04
RMM:   4    -0.152923890114E+02   -0.82155E-07   -0.26848E-07  7978   0.309E-03
   3 F= -.15292389E+02 E0= -.15290431E+02  d E =-.132000E-03
       N       E                     dE             d eps       ncg     rms          rms(c)
DAV:   1    -0.152924143055E+02   -0.25376E-04   -0.68894E-03 18384   0.464E-01    0.157E-02
RMM:   2    -0.152924535342E+02   -0.39229E-04   -0.45593E-04 16477   0.114E-01    0.646E-04
RMM:   3    -0.152924551162E+02   -0.15821E-05   -0.15164E-05 13981   0.174E-02    0.573E-04
RMM:   4    -0.152924552065E+02   -0.90297E-07   -0.71467E-07  9777   0.457E-03
   4 F= -.15292455E+02 E0= -.15290502E+02  d E =-.198195E-03
       N       E                     dE             d eps       ncg     rms          rms(c)
DAV:   1    -0.152925143367E+02   -0.59220E-04   -0.11061E-03 17932   0.190E-01    0.442E-03
RMM:   2    -0.152925188619E+02   -0.45251E-05   -0.40017E-05 16314   0.362E-02    0.261E-03
RMM:   3    -0.152925189511E+02   -0.89268E-07   -0.60381E-06 15279   0.113E-02    0.526E-03
RMM:   4    -0.152925216358E+02   -0.26847E-05   -0.17633E-06 10497   0.611E-03    0.739E-03
RMM:   5    -0.152925211179E+02    0.51792E-06   -0.22814E-07  9302   0.273E-03
   5 F= -.15292521E+02 E0= -.15290572E+02  d E =-.659113E-04
       N       E                     dE             d eps       ncg     rms          rms(c)
DAV:   1    -0.152926383007E+02   -0.11666E-03   -0.99024E-03 17004   0.570E-01    0.128E-02
RMM:   2    -0.152926922023E+02   -0.53902E-04   -0.44643E-04 16509   0.117E-01    0.173E-02
RMM:   3    -0.152926838063E+02    0.83959E-05   -0.17840E-05 16386   0.193E-02    0.141E-02
RMM:   4    -0.152926770963E+02    0.67101E-05   -0.27798E-06 12055   0.781E-03    0.105E-02
RMM:   5    -0.152926703698E+02    0.67265E-05   -0.11177E-05 16364   0.144E-02    0.251E-03
RMM:   6    -0.152926698012E+02    0.56862E-06   -0.17909E-06 10485   0.618E-03
   6 F= -.15292670E+02 E0= -.15290735E+02  d E =-.214595E-03
       N       E                     dE             d eps       ncg     rms          rms(c)
DAV:   1    -0.152926811598E+02   -0.10790E-04   -0.39666E-02 17052   0.114E+00    0.285E-02
RMM:   2    -0.152927988898E+02   -0.11773E-03   -0.14620E-03 16492   0.219E-01    0.875E-03
RMM:   3    -0.152928031832E+02   -0.42934E-05   -0.69060E-05 17302   0.365E-02    0.357E-03
RMM:   4    -0.152928034600E+02   -0.27681E-06   -0.18007E-06 11313   0.691E-03
   7 F= -.15292803E+02 E0= -.15290906E+02  d E =-.348253E-03
       N       E                     dE             d eps       ncg     rms          rms(c)
DAV:   1    -0.152928037410E+02   -0.55782E-06   -0.89846E-04 19944   0.165E-01    0.389E-03
RMM:   2    -0.152928091481E+02   -0.54071E-05   -0.54614E-05 16264   0.401E-02    0.242E-03
RMM:   3    -0.152928090980E+02    0.50110E-07   -0.11998E-06  9764   0.553E-03    0.210E-03
RMM:   4    -0.152928091868E+02   -0.88771E-07   -0.23710E-07  7082   0.275E-03
   8 F= -.15292809E+02 E0= -.15290909E+02  d E =-.572676E-05
       N       E                     dE             d eps       ncg     rms          rms(c)
DAV:   1    -0.152928097131E+02   -0.61512E-06   -0.82688E-05 18892   0.503E-02    0.358E-03
RMM:   2    -0.152928100008E+02   -0.28772E-06   -0.52071E-06 12390   0.124E-02    0.205E-03
RMM:   3    -0.152928099604E+02    0.40432E-07   -0.20482E-07  7209   0.281E-03    0.156E-03
RMM:   4    -0.152928099021E+02    0.58339E-07   -0.96882E-08  5528   0.203E-03
   9 F= -.15292810E+02 E0= -.15290911E+02  d E =-.644206E-05
       N       E                     dE             d eps       ncg     rms          rms(c)
DAV:   1    -0.152928098881E+02    0.72318E-07   -0.15234E-06 14036   0.734E-03    0.216E-04
RMM:   2    -0.152928098939E+02   -0.58253E-08   -0.10400E-07  5052   0.211E-03    0.161E-04
RMM:   3    -0.152928098917E+02    0.21876E-08   -0.10892E-09   895   0.113E-03    0.160E-04
RMM:   4    -0.152928098921E+02   -0.39176E-09   -0.12906E-09   602   0.116E-03
  10 F= -.15292810E+02 E0= -.15290911E+02  d E =-.643211E-05
       N       E                     dE             d eps       ncg     rms          rms(c)
DAV:   1    -0.152928098974E+02   -0.56625E-08   -0.25737E-07  9032   0.304E-03    0.248E-04
RMM:   2    -0.152928098967E+02    0.65036E-09   -0.18158E-09  1232   0.119E-03    0.462E-05
RMM:   3    -0.152928098950E+02    0.17431E-08   -0.94698E-10   609   0.123E-03    0.471E-05
RMM:   4    -0.152928098922E+02    0.27959E-08   -0.14361E-09   495   0.127E-03
  11 F= -.15292810E+02 E0= -.15290911E+02  d E =-.643219E-05
       N       E                     dE             d eps       ncg     rms          rms(c)
DAV:   1    -0.152928098982E+02   -0.32023E-08   -0.64542E-08  8892   0.177E-03    0.145E-04
RMM:   2    -0.152928098964E+02    0.17926E-08   -0.40392E-24   383   0.442E-04    0.386E-05
RMM:   3    -0.152928098970E+02   -0.56317E-09    0.00000E+00   194   0.495E-04    0.144E-05
RMM:   4    -0.152928098976E+02   -0.63407E-09    0.00000E+00   152   0.533E-04
  12 F= -.15292810E+02 E0= -.15290911E+02  d E =-.643760E-05
       N       E                     dE             d eps       ncg     rms          rms(c)
DAV:   1    -0.152928098985E+02   -0.15680E-08   -0.96370E-09  8676   0.725E-04    0.649E-05
RMM:   2    -0.152928098975E+02    0.10645E-08    0.00000E+00   327   0.306E-04    0.943E-06
RMM:   3    -0.152928098965E+02    0.98670E-09    0.00000E+00   150   0.304E-04    0.491E-06
RMM:   4    -0.152928098969E+02   -0.37464E-09    0.00000E+00   101   0.300E-04
  13 F= -.15292810E+02 E0= -.15290911E+02  d E =-.643685E-05
       N       E                     dE             d eps       ncg     rms          rms(c)
DAV:   1    -0.152928098976E+02   -0.11148E-08   -0.17732E-09  8656   0.291E-04    0.271E-05
RMM:   2    -0.152928098981E+02   -0.52864E-09    0.00000E+00   269   0.129E-04    0.154E-05
RMM:   3    -0.152928098981E+02    0.72848E-10    0.00000E+00    96   0.130E-04    0.108E-05
RMM:   4    -0.152928098979E+02    0.13829E-09    0.00000E+00    71   0.136E-04
  14 F= -.15292810E+02 E0= -.15290911E+02  d E =-.643791E-05
       N       E                     dE             d eps       ncg     rms          rms(c)
DAV:   1    -0.152928098981E+02   -0.55362E-10   -0.43606E-10  8532   0.131E-04    0.856E-06
RMM:   2    -0.152928098971E+02    0.99723E-09    0.00000E+00   216   0.606E-05    0.780E-07
RMM:   3    -0.152928098974E+02   -0.28397E-09    0.00000E+00    66   0.601E-05    0.896E-07
RMM:   4    -0.152928098973E+02    0.10861E-09    0.00000E+00    53   0.616E-05
  15 F= -.15292810E+02 E0= -.15290911E+02  d E =-.643728E-05
       N       E                     dE             d eps       ncg     rms          rms(c)
DAV:   1    -0.152928098980E+02   -0.55868E-09   -0.11607E-10  8500   0.607E-05    0.338E-06
RMM:   2    -0.152928098974E+02    0.53188E-09    0.00000E+00   174   0.329E-05    0.153E-06
RMM:   3    -0.152928098975E+02   -0.45237E-10    0.00000E+00    53   0.312E-05    0.657E-07
RMM:   4    -0.152928098979E+02   -0.48259E-09    0.00000E+00    42   0.310E-05
  16 F= -.15292810E+02 E0= -.15290911E+02  d E =-.643795E-05
       N       E                     dE             d eps       ncg     rms          rms(c)
DAV:   1    -0.152928098971E+02    0.33323E-09   -0.36699E-11  8440   0.309E-05    0.121E-06
RMM:   2    -0.152928098977E+02   -0.58019E-09    0.00000E+00   141   0.152E-05    0.155E-07
RMM:   3    -0.152928098977E+02   -0.46025E-11    0.00000E+00    52   0.150E-05    0.866E-08
RMM:   4    -0.152928098974E+02    0.28405E-09    0.00000E+00    35   0.150E-05
  17 F= -.15292810E+02 E0= -.15290911E+02  d E =-.643743E-05
       N       E                     dE             d eps       ncg     rms          rms(c)
DAV:   1    -0.152928099443E+02   -0.46554E-07   -0.12866E-06  9576   0.673E-03    0.217E-04
RMM:   2    -0.152928099342E+02    0.10106E-07   -0.10727E-07  5501   0.230E-03    0.119E-04
RMM:   3    -0.152928099461E+02   -0.11887E-07   -0.20131E-09   543   0.125E-03    0.182E-05
RMM:   4    -0.152928099500E+02   -0.39750E-08   -0.49287E-10   145   0.124E-03
  18 F= -.15292810E+02 E0= -.15290911E+02  d E =-.525944E-07
