Sn                                      
           1
     5.944297    0.000000    0.000000
     0.000000    5.974019    0.029721
     0.000000    0.016060    3.244169
   Sn
   4
Direct configuration=     1
   0.00000000  0.00000000  0.50000000
   0.50000000  0.00000000  0.75000000
   0.50000000  0.50000000  0.00000000
   0.00000000  0.50000000  0.25000000
Direct configuration=     2
   0.00000000 -0.00006827  0.49988859
   0.50000000  0.00006827  0.75011141
   0.50000000  0.49993173 -0.00011141
   0.00000000  0.50006827  0.25011141
Direct configuration=     3
   0.00000000 -0.00027309  0.49955434
   0.50000000  0.00027309  0.75044566
   0.50000000  0.49972691 -0.00044566
   0.00000000  0.50027309  0.25044566
Direct configuration=     4
   0.00000000 -0.00068274  0.49888586
   0.50000000  0.00068274  0.75111414
   0.50000000  0.49931726 -0.00111414
   0.00000000  0.50068274  0.25111414
Direct configuration=     5
  -0.00000000 -0.00066484  0.49842668
   0.50000000  0.00066484  0.75157332
   0.50000000  0.49933516 -0.00157332
   0.00000000  0.50066484  0.25157332
Direct configuration=     6
  -0.00000000 -0.00061116  0.49704917
   0.50000000  0.00061116  0.75295083
   0.50000000  0.49938884 -0.00295083
   0.00000000  0.50061116  0.25295083
Direct configuration=     7
  -0.00000000 -0.00050379  0.49429414
   0.50000000  0.00050379  0.75570586
   0.50000000  0.49949621 -0.00570586
   0.00000000  0.50050379  0.25570586
Direct configuration=     8
  -0.00000000 -0.00033716  0.49445873
   0.50000000  0.00033716  0.75554127
   0.50000000  0.49966284 -0.00554127
   0.00000000  0.50033716  0.25554127
Direct configuration=     9
  -0.00000000 -0.00038766  0.49440885
   0.50000000  0.00038766  0.75559115
   0.50000000  0.49961234 -0.00559115
   0.00000000  0.50038766  0.25559115
Direct configuration=    10
  -0.00000000 -0.00037972  0.49441670
   0.50000000  0.00037972  0.75558330
   0.50000000  0.49962028 -0.00558330
   0.00000000  0.50037972  0.25558330
Direct configuration=    11
  -0.00000000 -0.00038298  0.49441347
   0.50000000  0.00038298  0.75558653
   0.50000000  0.49961702 -0.00558653
   0.00000000  0.50038298  0.25558653
Direct configuration=    12
  -0.00000000 -0.00038125  0.49441518
   0.50000000  0.00038125  0.75558482
   0.50000000  0.49961875 -0.00558482
   0.00000000  0.50038125  0.25558482
Direct configuration=    13
  -0.00000000 -0.00038212  0.49441433
   0.50000000  0.00038212  0.75558567
   0.50000000  0.49961788 -0.00558567
   0.00000000  0.50038212  0.25558567
Direct configuration=    14
  -0.00000000 -0.00038183  0.49441461
   0.50000000  0.00038183  0.75558539
   0.50000000  0.49961817 -0.00558539
   0.00000000  0.50038183  0.25558539
Direct configuration=    15
  -0.00000000 -0.00038190  0.49441455
   0.50000000  0.00038190  0.75558545
   0.50000000  0.49961810 -0.00558545
   0.00000000  0.50038190  0.25558545
Direct configuration=    16
  -0.00000000 -0.00038188  0.49441456
   0.50000000  0.00038188  0.75558544
   0.50000000  0.49961812 -0.00558544
   0.00000000  0.50038188  0.25558544
Direct configuration=    17
  -0.00000000 -0.00038189  0.49441456
   0.50000000  0.00038189  0.75558544
   0.50000000  0.49961811 -0.00558544
   0.00000000  0.50038189  0.25558544
Direct configuration=    18
  -0.00000000 -0.00038093  0.49439839
   0.50000000  0.00038093  0.75560161
   0.50000000  0.49961907 -0.00560161
   0.00000000  0.50038093  0.25560161
