       N       E                     dE             d eps       ncg     rms          rms(c)
DAV:   1     0.921338832059E+03    0.92134E+03   -0.54017E+04 49056   0.174E+03
DAV:   2    -0.674946715794E+00   -0.92201E+03   -0.89198E+03 49056   0.397E+02
DAV:   3    -0.920205794493E+02   -0.91346E+02   -0.86707E+02 51532   0.147E+02
DAV:   4    -0.954881609067E+02   -0.34676E+01   -0.34054E+01 57636   0.277E+01
DAV:   5    -0.955796746899E+02   -0.91514E-01   -0.91272E-01 59160   0.390E+00    0.340E+01
RMM:   6    -0.103802908201E+03   -0.82232E+01   -0.42855E+02 49127   0.123E+02    0.254E+01
RMM:   7    -0.789721002836E+02    0.24831E+02   -0.92239E+01 49056   0.616E+01    0.294E+00
RMM:   8    -0.790002414755E+02   -0.28141E-01   -0.94738E+00 49056   0.159E+01    0.455E+00
RMM:   9    -0.785856560168E+02    0.41459E+00   -0.95763E-01 49057   0.618E+00    0.594E-01
RMM:  10    -0.785793784857E+02    0.62775E-02   -0.30921E-02 49063   0.794E-01    0.331E-01
RMM:  11    -0.785764148310E+02    0.29637E-02   -0.19085E-02 49056   0.571E-01    0.642E-02
RMM:  12    -0.785764209510E+02   -0.61201E-05   -0.58325E-04 49069   0.927E-02    0.508E-02
RMM:  13    -0.785763993335E+02    0.21618E-04   -0.18317E-04 49032   0.682E-02    0.274E-02
RMM:  14    -0.785763808244E+02    0.18509E-04   -0.38204E-05 35243   0.378E-02    0.454E-03
RMM:  15    -0.785763809161E+02   -0.91739E-07   -0.53245E-06 27581   0.124E-02
   1 F= -.78576381E+02 E0= -.78571501E+02  d E =-.785764E+02
       N       E                     dE             d eps       ncg     rms          rms(c)
DAV:   1    -0.785773728475E+02   -0.99202E-03   -0.83715E-02 52508   0.106E+00    0.268E-02
RMM:   2    -0.785773957849E+02   -0.22937E-04   -0.40551E-04 49057   0.117E-01    0.286E-02
RMM:   3    -0.785773749045E+02    0.20880E-04   -0.95562E-05 48875   0.508E-02    0.540E-03
RMM:   4    -0.785773730337E+02    0.18708E-05   -0.49092E-06 26159   0.115E-02
   2 F= -.78577373E+02 E0= -.78572489E+02  d E =-.992118E-03
       N       E                     dE             d eps       ncg     rms          rms(c)
DAV:   1    -0.785792897402E+02   -0.19148E-02   -0.75295E-01 50228   0.317E+00    0.809E-02
RMM:   2    -0.785792793611E+02    0.10379E-04   -0.27491E-03 49056   0.319E-01    0.175E-02
RMM:   3    -0.785792803427E+02   -0.98159E-06   -0.11793E-04 48268   0.552E-02    0.275E-03
RMM:   4    -0.785792815415E+02   -0.11988E-05   -0.11899E-05 28371   0.180E-02
   3 F= -.78579282E+02 E0= -.78574385E+02  d E =-.290063E-02
       N       E                     dE             d eps       ncg     rms          rms(c)
DAV:   1    -0.785783943914E+02    0.88595E-03   -0.30141E+00 49176   0.633E+00    0.163E-01
RMM:   2    -0.785783623626E+02    0.32029E-04   -0.11062E-02 49056   0.646E-01    0.175E-02
RMM:   3    -0.785783922237E+02   -0.29861E-04   -0.40651E-04 49126   0.912E-02    0.605E-03
RMM:   4    -0.785783967557E+02   -0.45321E-05   -0.40419E-05 32421   0.318E-02
   4 F= -.78578397E+02 E0= -.78573472E+02  d E =-.201584E-02
       N       E                     dE             d eps       ncg     rms          rms(c)
DAV:   1    -0.785796984167E+02   -0.13062E-02   -0.12673E+00 49172   0.410E+00    0.103E-01
RMM:   2    -0.785796648315E+02    0.33585E-04   -0.42311E-03 49056   0.396E-01    0.554E-03
RMM:   3    -0.785796780961E+02   -0.13265E-04   -0.14997E-04 47185   0.555E-02    0.590E-03
RMM:   4    -0.785796791355E+02   -0.10394E-05   -0.12655E-05 29342   0.175E-02
   5 F= -.78579679E+02 E0= -.78574773E+02  d E =-.329822E-02
       N       E                     dE             d eps       ncg     rms          rms(c)
DAV:   1    -0.785801124386E+02   -0.43434E-03   -0.56471E-02 50040   0.880E-01    0.216E-02
RMM:   2    -0.785801312405E+02   -0.18802E-04   -0.23288E-04 49056   0.879E-02    0.171E-02
RMM:   3    -0.785801134468E+02    0.17794E-04   -0.75614E-05 46991   0.348E-02    0.118E-02
RMM:   4    -0.785801120742E+02    0.13725E-05   -0.12041E-05 25915   0.214E-02
   6 F= -.78580112E+02 E0= -.78575210E+02  d E =-.432939E-03
       N       E                     dE             d eps       ncg     rms          rms(c)
DAV:   1    -0.785805786978E+02   -0.46525E-03   -0.35961E-01 49164   0.222E+00    0.538E-02
RMM:   2    -0.785805712772E+02    0.74205E-05   -0.12899E-03 49056   0.218E-01    0.382E-03
RMM:   3    -0.785805763132E+02   -0.50360E-05   -0.65411E-05 38169   0.363E-02    0.829E-03
RMM:   4    -0.785805763725E+02   -0.59304E-07   -0.80650E-06 27312   0.171E-02
   7 F= -.78580576E+02 E0= -.78575685E+02  d E =-.897237E-03
       N       E                     dE             d eps       ncg     rms          rms(c)
DAV:   1    -0.785808153690E+02   -0.23906E-03   -0.17117E-01 49720   0.152E+00    0.355E-02
RMM:   2    -0.785808379652E+02   -0.22596E-04   -0.50035E-04 49056   0.136E-01    0.345E-02
RMM:   3    -0.785808337965E+02    0.41687E-05   -0.27674E-04 49045   0.980E-02    0.389E-02
RMM:   4    -0.785808064659E+02    0.27331E-04   -0.62847E-05 41056   0.491E-02    0.157E-02
RMM:   5    -0.785808017108E+02    0.47551E-05   -0.49114E-05 37938   0.382E-02
   8 F= -.78580802E+02 E0= -.78575906E+02  d E =-.225338E-03
       N       E                     dE             d eps       ncg     rms          rms(c)
DAV:   1    -0.785808637059E+02   -0.57240E-04   -0.11520E-01 49280   0.124E+00    0.291E-02
RMM:   2    -0.785808527778E+02    0.10928E-04   -0.23449E-04 49056   0.101E-01    0.363E-03
RMM:   3    -0.785808532254E+02   -0.44762E-06   -0.80773E-06 26766   0.142E-02    0.120E-03
RMM:   4    -0.785808534101E+02   -0.18471E-06   -0.17503E-06 25778   0.824E-03
   9 F= -.78580853E+02 E0= -.78575955E+02  d E =-.277038E-03
       N       E                     dE             d eps       ncg     rms          rms(c)
DAV:   1    -0.785808535997E+02   -0.37434E-06   -0.99277E-04 51800   0.116E-01    0.282E-03
RMM:   2    -0.785808534755E+02    0.12419E-06   -0.19570E-06 24890   0.963E-03    0.290E-04
RMM:   3    -0.785808535215E+02   -0.46005E-07   -0.41967E-08  7310   0.256E-03    0.129E-04
RMM:   4    -0.785808535357E+02   -0.14119E-07   -0.62932E-09  2793   0.229E-03
  10 F= -.78580854E+02 E0= -.78575955E+02  d E =-.277163E-03
       N       E                     dE             d eps       ncg     rms          rms(c)
DAV:   1    -0.785808887666E+02   -0.35245E-04   -0.23118E-02 49328   0.559E-01    0.132E-02
RMM:   2    -0.785808879131E+02    0.85356E-06   -0.38826E-05 33645   0.437E-02    0.805E-03
RMM:   3    -0.785808872553E+02    0.65780E-06   -0.13106E-05 24920   0.209E-02    0.690E-03
RMM:   4    -0.785808863399E+02    0.91536E-06   -0.45255E-06 24693   0.147E-02
  11 F= -.78580886E+02 E0= -.78575986E+02  d E =-.328043E-04
       N       E                     dE             d eps       ncg     rms          rms(c)
DAV:   1    -0.785808981961E+02   -0.10941E-04   -0.16108E-02 49252   0.467E-01    0.114E-02
RMM:   2    -0.785808961000E+02    0.20961E-05   -0.25641E-05 26829   0.363E-02    0.271E-03
RMM:   3    -0.785808962829E+02   -0.18289E-06   -0.29735E-06 24986   0.949E-03    0.809E-04
RMM:   4    -0.785808963246E+02   -0.41752E-07   -0.54292E-07 24417   0.441E-03
  12 F= -.78580896E+02 E0= -.78575995E+02  d E =-.427890E-04
       N       E                     dE             d eps       ncg     rms          rms(c)
DAV:   1    -0.785808966158E+02   -0.33296E-06   -0.48344E-04 51728   0.809E-02    0.190E-03
RMM:   2    -0.785808965555E+02    0.60325E-07   -0.67303E-07 24570   0.557E-03    0.395E-04
RMM:   3    -0.785808965619E+02   -0.63492E-08   -0.13492E-10  2812   0.176E-03    0.313E-04
RMM:   4    -0.785808965389E+02    0.22927E-07   -0.14247E-10  1800   0.199E-03
  13 F= -.78580897E+02 E0= -.78575995E+02  d E =-.430033E-04
       N       E                     dE             d eps       ncg     rms          rms(c)
DAV:   1    -0.785809023536E+02   -0.57917E-05   -0.21998E-03 49312   0.174E-01    0.414E-03
RMM:   2    -0.785809027628E+02   -0.40919E-06   -0.67609E-06 24787   0.174E-02    0.472E-03
RMM:   3    -0.785809025532E+02    0.20955E-06   -0.26326E-06 24573   0.105E-02    0.318E-03
RMM:   4    -0.785809023309E+02    0.22234E-06   -0.79318E-07 24567   0.607E-03
  14 F= -.78580902E+02 E0= -.78576000E+02  d E =-.579197E-05
       N       E                     dE             d eps       ncg     rms          rms(c)
DAV:   1    -0.785809069435E+02   -0.43902E-05   -0.35664E-03 49360   0.222E-01    0.523E-03
RMM:   2    -0.785809068139E+02    0.12959E-06   -0.96473E-06 25476   0.210E-02    0.108E-03
RMM:   3    -0.785809069578E+02   -0.14388E-06   -0.13757E-06 24684   0.679E-03    0.852E-04
RMM:   4    -0.785809069847E+02   -0.26922E-07   -0.36166E-07 24065   0.400E-03
  15 F= -.78580907E+02 E0= -.78576003E+02  d E =-.104457E-04
       N       E                     dE             d eps       ncg     rms          rms(c)
DAV:   1    -0.785809080322E+02   -0.10744E-05   -0.12695E-03 49836   0.131E-01    0.306E-03
RMM:   2    -0.785809078136E+02    0.21858E-06   -0.23916E-06 24668   0.105E-02    0.271E-03
RMM:   3    -0.785809078664E+02   -0.52778E-07   -0.70270E-07 24094   0.490E-03    0.219E-03
RMM:   4    -0.785809079160E+02   -0.49674E-07   -0.33668E-07 22105   0.409E-03
  16 F= -.78580908E+02 E0= -.78576004E+02  d E =-.931332E-06
