AlCu                                    
           1
    12.362169    0.000086    0.008568
     0.000000    4.104732    0.041047
    -4.053186    0.056849    5.684858
   Al   Cu
  10  10
Direct configuration=     1
   0.50000000  0.00000000  0.50000000
   0.15587366  0.00000000  0.46137374
   0.84412632  0.00000000  0.53862623
   0.87805559  0.50000000  0.99541334
   0.12194440  0.50000000  0.00458663
   0.00000000  0.50000000  0.50000000
   0.65587368  0.50000000  0.46137374
   0.34412635  0.50000000  0.53862623
   0.37805559  0.00000000  0.99541334
   0.62194441  0.00000000  0.00458663
   0.00000000  0.00000000  0.00000000
   0.25805145  0.00000000  0.24172886
   0.74194852  0.00000000  0.75827112
   0.10866387  0.00000000  0.77167894
   0.89133614  0.00000000  0.22832103
   0.50000000  0.50000000  0.00000000
   0.75805148  0.50000000  0.24172886
   0.24194855  0.50000000  0.75827112
   0.60866386  0.50000000  0.77167894
   0.39133614  0.50000000  0.22832103
Direct configuration=     2
   0.50000000 -0.00000000  0.50000000
   0.15582508  0.00034711  0.46122626
   0.84417491 -0.00034711  0.53877371
   0.87814529  0.49997639  0.99542270
   0.12185471  0.50002361  0.00457728
   0.00000000  0.50000000  0.50000000
   0.65582509  0.50034711  0.46122626
   0.34417494  0.49965289  0.53877371
   0.37814529 -0.00002361  0.99542270
   0.62185471  0.00002361  0.00457728
   0.00000000 -0.00000000  0.00000000
   0.25806252 -0.00011809  0.24201121
   0.74193745  0.00011809  0.75798877
   0.10866616 -0.00000906  0.77163014
   0.89133386  0.00000906  0.22836983
   0.50000000  0.50000000  0.00000000
   0.75806255  0.49988191  0.24201121
   0.24193748  0.50011809  0.75798877
   0.60866614  0.49999094  0.77163014
   0.39133386  0.50000906  0.22836983
Direct configuration=     3
   0.50000000 -0.00000000  0.50000000
   0.15567932  0.00138844  0.46078384
   0.84432066 -0.00138844  0.53921613
   0.87841437  0.49990558  0.99545077
   0.12158562  0.50009442  0.00454921
   0.00000000  0.50000000  0.50000000
   0.65567934  0.50138844  0.46078384
   0.34432069  0.49861156  0.53921613
   0.37841437 -0.00009442  0.99545077
   0.62158563  0.00009442  0.00454921
   0.00000000 -0.00000000  0.00000000
   0.25809574 -0.00047238  0.24285827
   0.74190423  0.00047238  0.75714172
   0.10867302 -0.00003626  0.77148377
   0.89132700  0.00003626  0.22851620
   0.50000000  0.50000000  0.00000000
   0.75809577  0.49952762  0.24285827
   0.24190426  0.50047238  0.75714172
   0.60867300  0.49996374  0.77148377
   0.39132700  0.50003626  0.22851620
Direct configuration=     4
   0.50000000 -0.00000000  0.50000000
   0.15538781  0.00347109  0.45989899
   0.84461217 -0.00347109  0.54010098
   0.87895254  0.49976394  0.99550690
   0.12104746  0.50023606  0.00449307
   0.00000000  0.50000000  0.50000000
   0.65538783  0.50347109  0.45989899
   0.34461220  0.49652891  0.54010098
   0.37895254 -0.00023606  0.99550690
   0.62104746  0.00023606  0.00449307
   0.00000000 -0.00000000  0.00000000
   0.25816218 -0.00118094  0.24455237
   0.74183779  0.00118094  0.75544762
   0.10868673 -0.00009065  0.77119101
   0.89131328  0.00009065  0.22880896
   0.50000000  0.50000000  0.00000000
   0.75816221  0.49881906  0.24455237
   0.24183782  0.50118094  0.75544762
   0.60868672  0.49990935  0.77119101
   0.39131328  0.50009065  0.22880896
Direct configuration=     5
   0.50000000 -0.00000000  0.50000000
   0.15557692  0.00212000  0.46047302
   0.84442306 -0.00212000  0.53952695
   0.87860341  0.49985582  0.99547049
   0.12139658  0.50014418  0.00452949
   0.00000000  0.50000000  0.50000000
   0.65557694  0.50212000  0.46047302
   0.34442309  0.49788000  0.53952695
   0.37860341 -0.00014418  0.99547049
   0.62139659  0.00014418  0.00452949
   0.00000000 -0.00000000  0.00000000
   0.25811908 -0.00072127  0.24345335
   0.74188089  0.00072127  0.75654664
   0.10867783 -0.00005536  0.77138093
   0.89132218  0.00005536  0.22861904
   0.50000000  0.50000000  0.00000000
   0.75811911  0.49927873  0.24345335
   0.24188092  0.50072127  0.75654664
   0.60867782  0.49994464  0.77138093
   0.39132218  0.50005536  0.22861904
Direct configuration=     6
   0.50000000 -0.00000000  0.50000000
   0.15542973  0.00254109  0.46045186
   0.84457026 -0.00254109  0.53954811
   0.87858736  0.49998095  0.99542665
   0.12141264  0.50001905  0.00457332
   0.00000000  0.50000000  0.50000000
   0.65542974  0.50254109  0.46045186
   0.34457029  0.49745891  0.53954811
   0.37858736 -0.00001905  0.99542665
   0.62141264  0.00001905  0.00457332
   0.00000000 -0.00000000  0.00000000
   0.25813263 -0.00090930  0.24352124
   0.74186734  0.00090930  0.75647874
   0.10881384 -0.00005096  0.77150041
   0.89118618  0.00005096  0.22849956
   0.50000000  0.50000000  0.00000000
   0.75813266  0.49909070  0.24352124
   0.24186737  0.50090930  0.75647874
   0.60881382  0.49994904  0.77150041
   0.39118618  0.50005096  0.22849956
Direct configuration=     7
   0.50000000 -0.00000000  0.50000000
   0.15505834  0.00360352  0.46039847
   0.84494164 -0.00360352  0.53960150
   0.87854685  0.50029667  0.99531606
   0.12145315  0.49970333  0.00468392
   0.00000000  0.50000000  0.50000000
   0.65505836  0.50360352  0.46039847
   0.34494167  0.49639648  0.53960150
   0.37854685  0.00029667  0.99531606
   0.62145315 -0.00029667  0.00468392
   0.00000000 -0.00000000  0.00000000
   0.25816680 -0.00138371  0.24369254
   0.74183317  0.00138371  0.75630745
   0.10915699 -0.00003986  0.77180189
   0.89084302  0.00003986  0.22819808
   0.50000000  0.50000000  0.00000000
   0.75816683  0.49861629  0.24369254
   0.24183320  0.50138371  0.75630745
   0.60915698  0.49996014  0.77180189
   0.39084302  0.50003986  0.22819808
Direct configuration=     8
   0.50000000 -0.00000000  0.50000000
   0.15499883  0.00382557  0.46023500
   0.84500115 -0.00382557  0.53976497
   0.87849756  0.50034940  0.99526034
   0.12150244  0.49965060  0.00473964
   0.00000000  0.50000000  0.50000000
   0.65499885  0.50382557  0.46023500
   0.34500118  0.49617443  0.53976497
   0.37849756  0.00034940  0.99526034
   0.62150244 -0.00034940  0.00473964
   0.00000000 -0.00000000  0.00000000
   0.25811277 -0.00169130  0.24370684
   0.74188720  0.00169130  0.75629314
   0.10935693 -0.00008645  0.77220944
   0.89064309  0.00008645  0.22779053
   0.50000000  0.50000000  0.00000000
   0.75811280  0.49830870  0.24370684
   0.24188723  0.50169130  0.75629314
   0.60935691  0.49991355  0.77220944
   0.39064309  0.50008645  0.22779053
Direct configuration=     9
   0.50000000 -0.00000000  0.50000000
   0.15495001  0.00400771  0.46010091
   0.84504997 -0.00400771  0.53989906
   0.87845713  0.50039266  0.99521464
   0.12154287  0.49960734  0.00478534
   0.00000000  0.50000000  0.50000000
   0.65495003  0.50400771  0.46010091
   0.34505000  0.49599229  0.53989906
   0.37845713  0.00039266  0.99521464
   0.62154287 -0.00039266  0.00478534
   0.00000000 -0.00000000  0.00000000
   0.25806845 -0.00194361  0.24371858
   0.74193152  0.00194361  0.75628141
   0.10952093 -0.00012467  0.77254375
   0.89047909  0.00012467  0.22745622
   0.50000000  0.50000000  0.00000000
   0.75806848  0.49805639  0.24371858
   0.24193155  0.50194361  0.75628141
   0.60952091  0.49987533  0.77254375
   0.39047909  0.50012467  0.22745622
Direct configuration=    10
   0.50000000 -0.00000000  0.50000000
   0.15495456  0.00399077  0.46011338
   0.84504543 -0.00399077  0.53988659
   0.87846089  0.50038863  0.99521889
   0.12153911  0.49961137  0.00478109
   0.00000000  0.50000000  0.50000000
   0.65495457  0.50399077  0.46011338
   0.34504546  0.49600923  0.53988659
   0.37846089  0.00038863  0.99521889
   0.62153911 -0.00038863  0.00478109
   0.00000000 -0.00000000  0.00000000
   0.25807258 -0.00192014  0.24371749
   0.74192739  0.00192014  0.75628250
   0.10950567 -0.00012111  0.77251266
   0.89049434  0.00012111  0.22748731
   0.50000000  0.50000000  0.00000000
   0.75807261  0.49807986  0.24371749
   0.24192742  0.50192014  0.75628250
   0.60950566  0.49987889  0.77251266
   0.39049434  0.50012111  0.22748731
Direct configuration=    11
   0.50000000 -0.00000000  0.50000000
   0.15493879  0.00390408  0.46010311
   0.84506120 -0.00390408  0.53989686
   0.87847238  0.50044569  0.99519818
   0.12152761  0.49955431  0.00480179
   0.00000000  0.50000000  0.50000000
   0.65493880  0.50390408  0.46010311
   0.34506123  0.49609592  0.53989686
   0.37847238  0.00044569  0.99519818
   0.62152762 -0.00044569  0.00480179
   0.00000000 -0.00000000  0.00000000
   0.25812912 -0.00200953  0.24382422
   0.74187085  0.00200953  0.75617577
   0.10957105 -0.00006655  0.77261460
   0.89042896  0.00006655  0.22738537
   0.50000000  0.50000000  0.00000000
   0.75812915  0.49799047  0.24382422
   0.24187088  0.50200953  0.75617577
   0.60957104  0.49993345  0.77261460
   0.39042896  0.50006655  0.22738537
Direct configuration=    12
   0.50000000 -0.00000000  0.50000000
   0.15492563  0.00383174  0.46009454
   0.84507435 -0.00383174  0.53990543
   0.87848197  0.50049331  0.99518090
   0.12151802  0.49950669  0.00481907
   0.00000000  0.50000000  0.50000000
   0.65492565  0.50383174  0.46009454
   0.34507438  0.49616826  0.53990543
   0.37848197  0.00049331  0.99518090
   0.62151803 -0.00049331  0.00481907
   0.00000000 -0.00000000  0.00000000
   0.25817631 -0.00208414  0.24391329
   0.74182366  0.00208414  0.75608670
   0.10962561 -0.00002102  0.77269968
   0.89037440  0.00002102  0.22730029
   0.50000000  0.50000000  0.00000000
   0.75817634  0.49791586  0.24391329
   0.24182369  0.50208414  0.75608670
   0.60962560  0.49997898  0.77269968
   0.39037440  0.50002102  0.22730029
Direct configuration=    13
   0.50000000 -0.00000000  0.50000000
   0.15492335  0.00381922  0.46009305
   0.84507663 -0.00381922  0.53990692
   0.87848363  0.50050155  0.99517791
   0.12151636  0.49949845  0.00482206
   0.00000000  0.50000000  0.50000000
   0.65492337  0.50381922  0.46009305
   0.34507666  0.49618078  0.53990692
   0.37848363  0.00050155  0.99517791
   0.62151637 -0.00050155  0.00482206
   0.00000000 -0.00000000  0.00000000
   0.25818448 -0.00209705  0.24392870
   0.74181549  0.00209705  0.75607128
   0.10963506 -0.00001314  0.77271441
   0.89036496  0.00001314  0.22728556
   0.50000000  0.50000000  0.00000000
   0.75818451  0.49790295  0.24392870
   0.24181552  0.50209705  0.75607128
   0.60963504  0.49998686  0.77271441
   0.39036496  0.50001314  0.22728556
Direct configuration=    14
   0.50000000 -0.00000000  0.50000000
   0.15490163  0.00377369  0.46007895
   0.84509835 -0.00377369  0.53992102
   0.87848825  0.50047545  0.99514829
   0.12151174  0.49952455  0.00485169
   0.00000000  0.50000000  0.50000000
   0.65490165  0.50377369  0.46007895
   0.34509838  0.49622631  0.53992102
   0.37848825  0.00047545  0.99514829
   0.62151175 -0.00047545  0.00485169
   0.00000000 -0.00000000  0.00000000
   0.25817310 -0.00206613  0.24393474
   0.74182687  0.00206613  0.75606524
   0.10965373  0.00000842  0.77275162
   0.89034629 -0.00000842  0.22724835
   0.50000000  0.50000000  0.00000000
   0.75817313  0.49793387  0.24393474
   0.24182690  0.50206613  0.75606524
   0.60965371  0.50000842  0.77275162
   0.39034629  0.49999158  0.22724835
Direct configuration=    15
   0.50000000 -0.00000000  0.50000000
   0.15487398  0.00371572  0.46006098
   0.84512601 -0.00371572  0.53993899
   0.87849413  0.50044221  0.99511057
   0.12150587  0.49955779  0.00488941
   0.00000000  0.50000000  0.50000000
   0.65487399  0.50371572  0.46006098
   0.34512604  0.49628428  0.53993899
   0.37849413  0.00044221  0.99511057
   0.62150587 -0.00044221  0.00488941
   0.00000000 -0.00000000  0.00000000
   0.25815861 -0.00202676  0.24394244
   0.74184136  0.00202676  0.75605755
   0.10967750  0.00003588  0.77279901
   0.89032251 -0.00003588  0.22720096
   0.50000000  0.50000000  0.00000000
   0.75815864  0.49797324  0.24394244
   0.24184139  0.50202676  0.75605755
   0.60967749  0.50003588  0.77279901
   0.39032251  0.49996412  0.22720096
Direct configuration=    16
   0.50000000 -0.00000000  0.50000000
   0.15486978  0.00371503  0.46006081
   0.84513020 -0.00371503  0.53993916
   0.87848973  0.50042747  0.99510441
   0.12151026  0.49957253  0.00489557
   0.00000000  0.50000000  0.50000000
   0.65486980  0.50371503  0.46006081
   0.34513023  0.49628497  0.53993916
   0.37848973  0.00042747  0.99510441
   0.62151027 -0.00042747  0.00489557
   0.00000000 -0.00000000  0.00000000
   0.25816910 -0.00198296  0.24395900
   0.74183087  0.00198296  0.75604098
   0.10968949  0.00003116  0.77281475
   0.89031052 -0.00003116  0.22718522
   0.50000000  0.50000000  0.00000000
   0.75816913  0.49801704  0.24395900
   0.24183090  0.50198296  0.75604098
   0.60968948  0.50003116  0.77281475
   0.39031052  0.49996884  0.22718522
