       N       E                     dE             d eps       ncg     rms          rms(c)
DAV:   1     0.560433061807E+03    0.56043E+03   -0.30484E+04 31248   0.122E+03
DAV:   2    -0.647761583839E+02   -0.62521E+03   -0.60270E+03 31000   0.298E+02
DAV:   3    -0.170168818498E+03   -0.10539E+03   -0.99064E+02 43556   0.104E+02
DAV:   4    -0.175009515576E+03   -0.48407E+01   -0.47761E+01 39608   0.241E+01
DAV:   5    -0.175102366212E+03   -0.92851E-01   -0.92527E-01 39450   0.347E+00    0.195E+01
RMM:   6    -0.163159315507E+03    0.11943E+02   -0.13176E+02 31126   0.413E+01    0.531E+00
RMM:   7    -0.161505041961E+03    0.16543E+01   -0.36566E+00 31023   0.759E+00    0.321E+00
RMM:   8    -0.161565861646E+03   -0.60820E-01   -0.70848E+00 31111   0.904E+00    0.291E+00
RMM:   9    -0.161096196777E+03    0.46966E+00   -0.32905E+00 31000   0.715E+00    0.642E-01
RMM:  10    -0.161078627240E+03    0.17570E-01   -0.11582E-01 31603   0.121E+00    0.355E-01
RMM:  11    -0.161072891838E+03    0.57354E-02   -0.23130E-02 31019   0.623E-01    0.105E-01
RMM:  12    -0.161072934369E+03   -0.42531E-04   -0.65971E-03 32123   0.201E-01    0.321E-02
RMM:  13    -0.161072981242E+03   -0.46874E-04   -0.10236E-03 31201   0.142E-01    0.469E-02
RMM:  14    -0.161072881404E+03    0.99838E-04   -0.51048E-04 31003   0.935E-02    0.475E-03
RMM:  15    -0.161072886712E+03   -0.53073E-05   -0.52589E-05 28852   0.123E-02    0.179E-03
RMM:  16    -0.161072886136E+03    0.57533E-06   -0.68554E-06 25164   0.970E-03
   1 F= -.16107289E+03 E0= -.16106326E+03  d E =-.161073E+03
       N       E                     dE             d eps       ncg     rms          rms(c)
DAV:   1    -0.161077758175E+03   -0.48715E-02   -0.82002E-02 34282   0.871E-01    0.603E-02
RMM:   2    -0.161078072373E+03   -0.31420E-03   -0.30385E-03 31076   0.199E-01    0.870E-02
RMM:   3    -0.161077709633E+03    0.36274E-03   -0.28092E-03 31003   0.192E-01    0.182E-02
RMM:   4    -0.161077706529E+03    0.31043E-05   -0.12854E-04 31455   0.248E-02    0.206E-02
RMM:   5    -0.161077693298E+03    0.13230E-04   -0.16449E-04 31006   0.466E-02    0.198E-03
RMM:   6    -0.161077692439E+03    0.85986E-06   -0.45284E-06 23642   0.897E-03
   2 F= -.16107769E+03 E0= -.16106807E+03  d E =-.480630E-02
       N       E                     dE             d eps       ncg     rms          rms(c)
DAV:   1    -0.161087203575E+03   -0.95103E-02   -0.73800E-01 32512   0.261E+00    0.181E-01
RMM:   2    -0.161086534759E+03    0.66882E-03   -0.82265E-03 31137   0.354E-01    0.304E-02
RMM:   3    -0.161086588738E+03   -0.53979E-04   -0.97669E-04 35575   0.883E-02    0.139E-02
RMM:   4    -0.161086581982E+03    0.67560E-05   -0.56425E-05 32217   0.290E-02    0.460E-03
RMM:   5    -0.161086582507E+03   -0.52484E-06   -0.58680E-06 25107   0.861E-03
   3 F= -.16108658E+03 E0= -.16107698E+03  d E =-.136964E-01
       N       E                     dE             d eps       ncg     rms          rms(c)
DAV:   1    -0.161081594809E+03    0.49872E-02   -0.29522E+00 31048   0.523E+00    0.360E-01
RMM:   2    -0.161078805573E+03    0.27892E-02   -0.31162E-02 31154   0.688E-01    0.315E-02
RMM:   3    -0.161079135785E+03   -0.33021E-03   -0.36191E-03 35840   0.170E-01    0.850E-03
RMM:   4    -0.161079138882E+03   -0.30974E-05   -0.11497E-04 35507   0.380E-02    0.622E-03
RMM:   5    -0.161079138960E+03   -0.77981E-07   -0.92843E-06 25689   0.111E-02
   4 F= -.16107914E+03 E0= -.16106953E+03  d E =-.625282E-02
       N       E                     dE             d eps       ncg     rms          rms(c)
DAV:   1    -0.161089227530E+03   -0.10089E-01   -0.15514E+00 31012   0.379E+00    0.261E-01
RMM:   2    -0.161087727534E+03    0.15000E-02   -0.16501E-02 31160   0.500E-01    0.180E-02
RMM:   3    -0.161087904945E+03   -0.17741E-03   -0.18962E-03 36007   0.123E-01    0.177E-03
RMM:   4    -0.161087908112E+03   -0.31669E-05   -0.52433E-05 34400   0.260E-02    0.260E-03
RMM:   5    -0.161087908125E+03   -0.13212E-07   -0.46095E-06 23580   0.757E-03
   5 F= -.16108791E+03 E0= -.16107832E+03  d E =-.150220E-01
       N       E                     dE             d eps       ncg     rms          rms(c)
DAV:   1    -0.161089214009E+03   -0.13059E-02   -0.27857E-02 33928   0.527E-01    0.292E-02
RMM:   2    -0.161089904154E+03   -0.69014E-03   -0.47759E-03 31010   0.247E-01    0.101E-01
RMM:   3    -0.161089341645E+03    0.56251E-03   -0.17071E-03 31000   0.150E-01    0.279E-02
RMM:   4    -0.161089331883E+03    0.97616E-05   -0.21862E-04 31135   0.361E-02    0.114E-02
RMM:   5    -0.161089338570E+03   -0.66871E-05   -0.16926E-04 31321   0.453E-02    0.152E-02
RMM:   6    -0.161089332387E+03    0.61838E-05   -0.11421E-05 31461   0.116E-02    0.108E-02
RMM:   7    -0.161089329684E+03    0.27026E-05   -0.43116E-05 31134   0.232E-02    0.155E-03
RMM:   8    -0.161089329823E+03   -0.13910E-06   -0.15215E-06 19099   0.309E-03
   6 F= -.16108933E+03 E0= -.16107974E+03  d E =-.142170E-02
       N       E                     dE             d eps       ncg     rms          rms(c)
DAV:   1    -0.161089961618E+03   -0.63193E-03   -0.94805E-02 31936   0.973E-01    0.543E-02
RMM:   2    -0.161090368006E+03   -0.40639E-03   -0.47309E-03 31000   0.300E-01    0.308E-02
RMM:   3    -0.161090363453E+03    0.45530E-05   -0.36314E-04 33073   0.754E-02    0.156E-02
RMM:   4    -0.161090358257E+03    0.51957E-05   -0.97304E-05 31225   0.371E-02    0.106E-03
RMM:   5    -0.161090359157E+03   -0.90015E-06   -0.90530E-06 27860   0.896E-03
   7 F= -.16109036E+03 E0= -.16108078E+03  d E =-.245103E-02
       N       E                     dE             d eps       ncg     rms          rms(c)
DAV:   1    -0.161090358856E+03   -0.59952E-06   -0.32908E-06 28562   0.705E-03    0.745E-04
RMM:   2    -0.161090358794E+03    0.62506E-07   -0.33109E-07 16716   0.263E-03    0.543E-04
RMM:   3    -0.161090358756E+03    0.37821E-07   -0.11368E-07 14436   0.133E-03    0.548E-04
RMM:   4    -0.161090358869E+03   -0.11252E-06   -0.10533E-07 15190   0.148E-03
   8 F= -.16109036E+03 E0= -.16108078E+03  d E =-.245074E-02
       N       E                     dE             d eps       ncg     rms          rms(c)
DAV:   1    -0.161090358880E+03   -0.12373E-06   -0.66357E-07 18926   0.281E-03    0.196E-04
RMM:   2    -0.161090358868E+03    0.12331E-07   -0.64130E-08 13538   0.112E-03    0.126E-04
RMM:   3    -0.161090358875E+03   -0.73746E-08   -0.20752E-10  1743   0.627E-04    0.347E-05
RMM:   4    -0.161090358869E+03    0.61569E-08   -0.15273E-11  1408   0.632E-04
   9 F= -.16109036E+03 E0= -.16108078E+03  d E =-.245074E-02
       N       E                     dE             d eps       ncg     rms          rms(c)
DAV:   1    -0.161090357810E+03    0.10648E-05   -0.75281E-05 33344   0.274E-02    0.181E-03
RMM:   2    -0.161090360084E+03   -0.22736E-05   -0.29837E-05 31014   0.203E-02    0.803E-03
RMM:   3    -0.161090358295E+03    0.17883E-05   -0.24573E-05 31000   0.190E-02    0.160E-03
RMM:   4    -0.161090358835E+03   -0.53969E-06   -0.36592E-06 23313   0.470E-03
  10 F= -.16109036E+03 E0= -.16108078E+03  d E =0.336913E-07
       N       E                     dE             d eps       ncg     rms          rms(c)
DAV:   1    -0.161090358624E+03   -0.32870E-06   -0.22656E-04 32554   0.480E-02    0.299E-03
RMM:   2    -0.161090359813E+03   -0.11886E-05   -0.18879E-05 31000   0.187E-02    0.414E-03
RMM:   3    -0.161090359579E+03    0.23325E-06   -0.55856E-06 25541   0.926E-03    0.723E-04
RMM:   4    -0.161090359617E+03   -0.37732E-07   -0.35544E-07 16313   0.252E-03
  11 F= -.16109036E+03 E0= -.16108078E+03  d E =-.748371E-06
       N       E                     dE             d eps       ncg     rms          rms(c)
DAV:   1    -0.161090359533E+03    0.46125E-07   -0.12106E-05 33760   0.112E-02    0.909E-04
RMM:   2    -0.161090359514E+03    0.19544E-07   -0.43572E-07 15973   0.315E-03    0.387E-04
RMM:   3    -0.161090359512E+03    0.14107E-08   -0.66014E-08 14194   0.126E-03    0.361E-04
RMM:   4    -0.161090359464E+03    0.48643E-07   -0.42387E-08  9294   0.101E-03
  12 F= -.16109036E+03 E0= -.16108078E+03  d E =-.594917E-06
       N       E                     dE             d eps       ncg     rms          rms(c)
DAV:   1    -0.161090359499E+03    0.13678E-07   -0.37294E-07 18728   0.221E-03    0.191E-04
RMM:   2    -0.161090359543E+03   -0.44430E-07   -0.14572E-08  4812   0.855E-04    0.604E-05
RMM:   3    -0.161090359576E+03   -0.33149E-07   -0.61120E-08  8445   0.975E-04    0.286E-04
RMM:   4    -0.161090359554E+03    0.22189E-07   -0.17776E-09  1754   0.757E-04
  13 F= -.16109036E+03 E0= -.16108078E+03  d E =-.685273E-06
       N       E                     dE             d eps       ncg     rms          rms(c)
DAV:   1    -0.161090359530E+03    0.46249E-07   -0.60073E-08 18308   0.109E-03    0.900E-05
RMM:   2    -0.161090359503E+03    0.27074E-07    0.00000E+00   899   0.379E-04    0.373E-05
RMM:   3    -0.161090359500E+03    0.30328E-08    0.00000E+00   662   0.430E-04    0.170E-05
RMM:   4    -0.161090359507E+03   -0.69835E-08    0.00000E+00   552   0.444E-04
  14 F= -.16109036E+03 E0= -.16108078E+03  d E =-.638089E-06
       N       E                     dE             d eps       ncg     rms          rms(c)
DAV:   1    -0.161090359513E+03   -0.12797E-07   -0.13639E-08 17588   0.553E-04    0.917E-05
RMM:   2    -0.161090359527E+03   -0.14300E-07    0.00000E+00   725   0.292E-04    0.768E-05
RMM:   3    -0.161090359524E+03    0.32272E-08    0.00000E+00   554   0.287E-04    0.773E-05
RMM:   4    -0.161090359517E+03    0.66531E-08    0.00000E+00   462   0.309E-04
  15 F= -.16109036E+03 E0= -.16108078E+03  d E =-.648322E-06
       N       E                     dE             d eps       ncg     rms          rms(c)
DAV:   1    -0.161090359514E+03    0.92916E-08   -0.45671E-09 17372   0.368E-04    0.481E-05
RMM:   2    -0.161090359509E+03    0.54054E-08    0.00000E+00   674   0.164E-04    0.146E-05
RMM:   3    -0.161090359508E+03    0.64057E-09    0.00000E+00   512   0.176E-04    0.115E-05
RMM:   4    -0.161090359507E+03    0.16461E-08    0.00000E+00   397   0.180E-04
  16 F= -.16109036E+03 E0= -.16108078E+03  d E =-.637992E-06
       N       E                     dE             d eps       ncg     rms          rms(c)
DAV:   1    -0.161090359508E+03    0.46759E-09   -0.11119E-09 17030   0.187E-04    0.283E-05
RMM:   2    -0.161090359511E+03   -0.30075E-08    0.00000E+00   600   0.106E-04    0.185E-05
RMM:   3    -0.161090359512E+03   -0.54132E-09    0.00000E+00   407   0.116E-04    0.157E-05
RMM:   4    -0.161090359512E+03   -0.96122E-09    0.00000E+00   309   0.125E-04
  17 F= -.16109036E+03 E0= -.16108078E+03  d E =-.643680E-06
       N       E                     dE             d eps       ncg     rms          rms(c)
DAV:   1    -0.161090359512E+03   -0.96503E-09   -0.63215E-10 16682   0.126E-04    0.199E-05
RMM:   2    -0.161090359508E+03    0.43109E-08    0.00000E+00   575   0.710E-05    0.127E-05
RMM:   3    -0.161090359510E+03   -0.20205E-08    0.00000E+00   328   0.940E-05    0.775E-06
RMM:   4    -0.161090359510E+03    0.44355E-09    0.00000E+00   279   0.107E-04
  18 F= -.16109036E+03 E0= -.16108078E+03  d E =-.640950E-06
       N       E                     dE             d eps       ncg     rms          rms(c)
DAV:   1    -0.161090359510E+03   -0.19526E-09   -0.35165E-10 16694   0.113E-04    0.161E-05
RMM:   2    -0.161090359512E+03   -0.11240E-08    0.00000E+00   520   0.570E-05    0.667E-06
RMM:   3    -0.161090359512E+03   -0.98703E-09    0.00000E+00   287   0.637E-05    0.512E-06
RMM:   4    -0.161090359512E+03    0.43320E-09    0.00000E+00   241   0.727E-05
  19 F= -.16109036E+03 E0= -.16108078E+03  d E =-.643267E-06
       N       E                     dE             d eps       ncg     rms          rms(c)
DAV:   1    -0.161090359513E+03   -0.33839E-09   -0.22059E-10 16430   0.782E-05    0.142E-05
RMM:   2    -0.161090359511E+03    0.13749E-08    0.00000E+00   478   0.739E-05    0.289E-06
RMM:   3    -0.161090359510E+03    0.13682E-08    0.00000E+00   238   0.806E-05    0.156E-06
RMM:   4    -0.161090359511E+03   -0.13126E-08    0.00000E+00   204   0.848E-05
  20 F= -.16109036E+03 E0= -.16108078E+03  d E =-.642608E-06
       N       E                     dE             d eps       ncg     rms          rms(c)
DAV:   1    -0.161090359511E+03   -0.68627E-09   -0.22908E-10 16304   0.843E-05    0.151E-05
RMM:   2    -0.161090359512E+03   -0.12496E-08    0.00000E+00   441   0.727E-05    0.250E-06
RMM:   3    -0.161090359512E+03   -0.72248E-10    0.00000E+00   208   0.750E-05    0.206E-06
RMM:   4    -0.161090359514E+03   -0.14144E-08    0.00000E+00   174   0.794E-05
  21 F= -.16109036E+03 E0= -.16108078E+03  d E =-.644718E-06
       N       E                     dE             d eps       ncg     rms          rms(c)
DAV:   1    -0.161090359513E+03   -0.12733E-08   -0.22254E-10 16304   0.801E-05    0.152E-05
RMM:   2    -0.161090359511E+03    0.27626E-08    0.00000E+00   412   0.818E-05    0.116E-06
RMM:   3    -0.161090359511E+03   -0.13875E-09    0.00000E+00   192   0.836E-05    0.841E-07
RMM:   4    -0.161090359511E+03   -0.18883E-09    0.00000E+00   162   0.858E-05
  22 F= -.16109036E+03 E0= -.16108078E+03  d E =-.642142E-06
       N       E                     dE             d eps       ncg     rms          rms(c)
DAV:   1    -0.161090359511E+03   -0.20140E-09   -0.25092E-10 16202   0.858E-05    0.166E-05
RMM:   2    -0.161090359513E+03   -0.21391E-08    0.00000E+00   386   0.851E-05    0.171E-06
RMM:   3    -0.161090359513E+03   -0.25415E-09    0.00000E+00   174   0.893E-05    0.972E-07
RMM:   4    -0.161090359513E+03   -0.14683E-09    0.00000E+00   146   0.917E-05
  23 F= -.16109036E+03 E0= -.16108078E+03  d E =-.644694E-06
       N       E                     dE             d eps       ncg     rms          rms(c)
DAV:   1    -0.161090359513E+03    0.58293E-09   -0.30753E-10 16178   0.933E-05    0.189E-05
RMM:   2    -0.161090359511E+03    0.18411E-08    0.00000E+00   368   0.106E-04    0.482E-07
RMM:   3    -0.161090359510E+03    0.94695E-09    0.00000E+00   147   0.108E-04    0.242E-07
RMM:   4    -0.161090359510E+03   -0.21510E-09    0.00000E+00   127   0.108E-04
  24 F= -.16109036E+03 E0= -.16108078E+03  d E =-.641392E-06
       N       E                     dE             d eps       ncg     rms          rms(c)
DAV:   1    -0.161090357550E+03    0.19601E-05   -0.42899E-04 31160   0.654E-02    0.437E-03
RMM:   2    -0.161090359291E+03   -0.17410E-05   -0.20700E-05 30986   0.199E-02    0.404E-03
RMM:   3    -0.161090359268E+03    0.22943E-07   -0.13561E-05 28219   0.145E-02    0.271E-03
RMM:   4    -0.161090359517E+03   -0.24878E-06   -0.92009E-06 26627   0.134E-02
  25 F= -.16109036E+03 E0= -.16108078E+03  d E =-.647895E-06
