       N       E                     dE             d eps       ncg     rms          rms(c)
DAV:   1     0.347600790562E+02    0.34760E+02   -0.39261E+03 15984   0.666E+02
DAV:   2    -0.125880688572E+02   -0.47348E+02   -0.44657E+02 20212   0.106E+02
DAV:   3    -0.153144199114E+02   -0.27264E+01   -0.26212E+01 21452   0.274E+01
DAV:   4    -0.153590538891E+02   -0.44634E-01   -0.44348E-01 19400   0.344E+00
DAV:   5    -0.153598728063E+02   -0.81892E-03   -0.81819E-03 21248   0.399E-01    0.154E+00
RMM:   6    -0.153156852642E+02    0.44188E-01   -0.87645E-03 15984   0.742E-01    0.960E-01
RMM:   7    -0.152878565530E+02    0.27829E-01   -0.27815E-02 15984   0.132E+00    0.629E-02
RMM:   8    -0.152880867940E+02   -0.23024E-03   -0.78353E-04 16133   0.230E-01    0.165E-02
RMM:   9    -0.152880948988E+02   -0.81048E-05   -0.41633E-05 16378   0.457E-02    0.574E-03
RMM:  10    -0.152881119882E+02   -0.17089E-04   -0.93946E-06 14985   0.193E-02    0.132E-03
RMM:  11    -0.152881127406E+02   -0.75233E-06   -0.23831E-07  9464   0.333E-03
   1 F= -.15288113E+02 E0= -.15286184E+02  d E =-.152881E+02
       N       E                     dE             d eps       ncg     rms          rms(c)
DAV:   1    -0.152881881208E+02   -0.76133E-04   -0.26201E-04 19444   0.932E-02    0.231E-03
RMM:   2    -0.152881887851E+02   -0.66425E-06   -0.81856E-06 13574   0.165E-02    0.963E-04
RMM:   3    -0.152881888919E+02   -0.10680E-06   -0.33287E-07  8055   0.340E-03    0.386E-04
RMM:   4    -0.152881889499E+02   -0.58009E-07   -0.62986E-08  4615   0.179E-03
   2 F= -.15288189E+02 E0= -.15286261E+02  d E =-.762093E-04
       N       E                     dE             d eps       ncg     rms          rms(c)
DAV:   1    -0.152884017710E+02   -0.21288E-03   -0.23595E-03 17524   0.280E-01    0.683E-03
RMM:   2    -0.152884072109E+02   -0.54399E-05   -0.80244E-05 15973   0.517E-02    0.413E-04
RMM:   3    -0.152884077380E+02   -0.52714E-06   -0.30705E-06 11333   0.791E-03    0.362E-04
RMM:   4    -0.152884078905E+02   -0.15249E-06   -0.20409E-07  7438   0.276E-03
   3 F= -.15288408E+02 E0= -.15286484E+02  d E =-.295150E-03
       N       E                     dE             d eps       ncg     rms          rms(c)
DAV:   1    -0.152887804455E+02   -0.37271E-03   -0.94243E-03 16736   0.560E-01    0.137E-02
RMM:   2    -0.152888042558E+02   -0.23810E-04   -0.32150E-04 16036   0.104E-01    0.869E-04
RMM:   3    -0.152888055667E+02   -0.13109E-05   -0.13222E-05 13976   0.158E-02    0.326E-04
RMM:   4    -0.152888056061E+02   -0.39368E-07   -0.39848E-07  9245   0.394E-03
   4 F= -.15288806E+02 E0= -.15286892E+02  d E =-.692866E-03
       N       E                     dE             d eps       ncg     rms          rms(c)
DAV:   1    -0.152893312693E+02   -0.52570E-03   -0.37713E-02 16628   0.112E+00    0.273E-02
RMM:   2    -0.152894270928E+02   -0.95824E-04   -0.12829E-03 16039   0.207E-01    0.170E-03
RMM:   3    -0.152894321230E+02   -0.50302E-05   -0.52532E-05 16216   0.314E-02    0.785E-04
RMM:   4    -0.152894320749E+02    0.48190E-07   -0.12982E-06 10462   0.615E-03
   5 F= -.15289432E+02 E0= -.15287548E+02  d E =-.131933E-02
       N       E                     dE             d eps       ncg     rms          rms(c)
DAV:   1    -0.152895627246E+02   -0.13060E-03   -0.15080E-01 16580   0.224E+00    0.549E-02
RMM:   2    -0.152899445798E+02   -0.38186E-03   -0.50785E-03 16041   0.413E-01    0.714E-03
RMM:   3    -0.152899647507E+02   -0.20171E-04   -0.20928E-04 16887   0.627E-02    0.238E-03
RMM:   4    -0.152899653278E+02   -0.57709E-06   -0.55396E-06 12087   0.117E-02
   6 F= -.15289965E+02 E0= -.15288138E+02  d E =-.185259E-02
       N       E                     dE             d eps       ncg     rms          rms(c)
DAV:   1    -0.152899612337E+02    0.35170E-05   -0.47175E-04 20212   0.126E-01    0.207E-03
RMM:   2    -0.152899629179E+02   -0.16842E-05   -0.15131E-05 14525   0.225E-02    0.137E-03
RMM:   3    -0.152899628994E+02    0.18474E-07   -0.40377E-07  7152   0.356E-03    0.148E-03
RMM:   4    -0.152899628819E+02    0.17496E-07   -0.56415E-08  3161   0.168E-03
   7 F= -.15289963E+02 E0= -.15288134E+02  d E =-.185014E-02
       N       E                     dE             d eps       ncg     rms          rms(c)
DAV:   1    -0.152899638384E+02   -0.93894E-06   -0.36097E-05 17828   0.347E-02    0.136E-03
RMM:   2    -0.152899638532E+02   -0.14789E-07   -0.11723E-06  8822   0.657E-03    0.568E-04
RMM:   3    -0.152899638589E+02   -0.57155E-08   -0.84090E-08  4906   0.209E-03    0.341E-04
RMM:   4    -0.152899638625E+02   -0.35884E-08   -0.26207E-08  3271   0.165E-03
   8 F= -.15289964E+02 E0= -.15288136E+02  d E =-.185112E-02
       N       E                     dE             d eps       ncg     rms          rms(c)
DAV:   1    -0.152899633690E+02    0.48987E-06   -0.69524E-06 17448   0.156E-02    0.619E-04
RMM:   2    -0.152899633968E+02   -0.27775E-07   -0.19166E-07  5965   0.277E-03    0.373E-04
RMM:   3    -0.152899633879E+02    0.89209E-08   -0.56760E-09  1124   0.127E-03    0.164E-04
RMM:   4    -0.152899633860E+02    0.18180E-08   -0.32298E-09   797   0.128E-03
   9 F= -.15289963E+02 E0= -.15288135E+02  d E =-.185065E-02
       N       E                     dE             d eps       ncg     rms          rms(c)
DAV:   1    -0.152899635555E+02   -0.16761E-06   -0.66943E-07  9524   0.521E-03    0.208E-04
RMM:   2    -0.152899635494E+02    0.60956E-08   -0.48175E-08  4100   0.178E-03    0.183E-04
RMM:   3    -0.152899635504E+02   -0.10772E-08    0.00000E+00   679   0.112E-03    0.669E-05
RMM:   4    -0.152899635529E+02   -0.24418E-08    0.00000E+00   480   0.110E-03
  10 F= -.15289964E+02 E0= -.15288135E+02  d E =-.185081E-02
       N       E                     dE             d eps       ncg     rms          rms(c)
DAV:   1    -0.152899634765E+02    0.73945E-07   -0.15005E-07  8768   0.243E-03    0.142E-04
RMM:   2    -0.152899634795E+02   -0.30363E-08    0.00000E+00   555   0.636E-04    0.586E-05
RMM:   3    -0.152899634785E+02    0.10136E-08    0.00000E+00   352   0.678E-04    0.245E-05
RMM:   4    -0.152899634773E+02    0.12538E-08    0.00000E+00   281   0.704E-04
  11 F= -.15289963E+02 E0= -.15288135E+02  d E =-.185074E-02
