 vasp.5.3.5 31Mar14 (build Nov 12 2015 11:19:23) complex                         
 executed on           CrayXC_GCC date 2016.06.29  17:19:59
 running on   96 total cores
 distrk:  each k-point on   24 cores,    4 groups
 distr:  one band on NCORES_PER_BAND=  12 cores,    2 groups


--------------------------------------------------------------------------------------------------------


 INCAR:
 POTCAR:   PAW_GGA Sn 07Sep2001                   

 ----------------------------------------------------------------------------- 
|                                                                             |
|           W    W    AA    RRRRR   N    N  II  N    N   GGGG   !!!           |
|           W    W   A  A   R    R  NN   N  II  NN   N  G    G  !!!           |
|           W    W  A    A  R    R  N N  N  II  N N  N  G       !!!           |
|           W WW W  AAAAAA  RRRRR   N  N N  II  N  N N  G  GGG   !            |
|           WW  WW  A    A  R   R   N   NN  II  N   NN  G    G                |
|           W    W  A    A  R    R  N    N  II  N    N   GGGG   !!!           |
|                                                                             |
|      You have enabled k-point parallelism (KPAR>1).                         |
|      This developmental code was originally  written by Paul Kent at ORNL,  |
|      and carefully double checked in Vienna.                                |
|      GW as well as linear response parallelism added by Martijn Marsman     |
|      and Georg Kresse.                                                      |
|      Carefully verify results versus KPAR=1.                                |
|      Report problems to Paul Kent and Vienna.                               |
|                                                                             |
 ----------------------------------------------------------------------------- 

 POTCAR:   PAW_GGA Sn 07Sep2001                   
   VRHFIN =Sn: s2p2                                                             
   LEXCH  = 91                                                                  
   EATOM  =    94.3376 eV,    6.9336 Ry                                         
                                                                                
   TITEL  = PAW_GGA Sn 07Sep2001                                                
   LULTRA =        F    use ultrasoft PP ?                                      
   IUNSCR =        1    unscreen: 0-lin 1-nonlin 2-no                           
   RPACOR =    2.000    partial core radius                                     
   POMASS =  118.710; ZVAL   =    4.000    mass and valenz                      
   RCORE  =    3.000    outmost cutoff radius                                   
   RWIGS  =    2.960; RWIGS  =    1.566    wigner-seitz radius (au A)           
   ENMAX  =  103.267; ENMIN  =   77.450 eV                                      
   ICORE  =        3    local potential                                         
   LCOR   =        T    correct aug charges                                     
   LPAW   =        T    paw PP                                                  
   EAUG   =  263.585                                                            
   DEXC   =    -.040                                                            
   RMAX   =    4.537    core radius for proj-oper                               
   RAUG   =    1.300    factor for augmentation sphere                          
   RDEP   =    3.022    radius for radial grids                                 
   QCUT   =   -2.755; QGAM   =    5.510    optimization parameters              
                                                                                
   Description                                                                  
     l     E      TYP  RCUT    TYP  RCUT                                        
     0   .000     23  3.000                                                     
     0  2.000     23  3.000                                                     
     1   .000     23  3.000                                                     
     1   .000     23  3.000                                                     
     2   .000     23  3.000                                                     
     3  -.200     23  3.000                                                     
  local pseudopotential read in
  partial core-charges read in
  atomic valenz-charges read in
  non local Contribution for L=           0  read in
    real space projection operators read in
  non local Contribution for L=           0  read in
    real space projection operators read in
  non local Contribution for L=           1  read in
    real space projection operators read in
  non local Contribution for L=           1  read in
    real space projection operators read in
  non local Contribution for L=           2  read in
    real space projection operators read in
    PAW grid and wavefunctions read in

   number of l-projection  operators is LMAX  =           5
   number of lm-projection operators is LMMAX =          13

 PAW_GGA Sn 07Sep2001                   :
 energy of atom  1       EATOM=  -94.3376
 kinetic energy error for atom=    0.0002 (will be added to EATOM!!)


 POSCAR: Sn4                                     
  positions in direct lattice
  No initial velocities read in
 exchange correlation table for  LEXCH =        7
   RHO(1)=    0.500       N(1)  =     2000
   RHO(2)=  100.500       N(2)  =     4000



--------------------------------------------------------------------------------------------------------


 ion  position               nearest neighbor table
   1  0.000  0.000  0.500-   2 3.05   2 3.05   4 3.08   4 3.08
   2  0.500  0.000  0.750-   1 3.05   1 3.05   3 3.08   3 3.08
   3  0.500  0.500  0.000-   4 3.05   4 3.05   2 3.08   2 3.08
   4  0.000  0.500  0.250-   3 3.05   3 3.05   1 3.08   1 3.08

  LATTYP: Found a simple monoclinic cell.
 ALAT       =     8.3225467204
 B/A-ratio  =     0.3820859812
 C/A-ratio  =     1.5779252941
 COS(beta)  =    -0.9473985381
  
  Lattice vectors:
  
 A1 = (  -5.8551326833,  -5.9145756547,   0.0000000000)
 A2 = (   0.0000000000,   0.0000000000,  -3.1799284298)
 A3 = (  11.7399868523,   5.8848541690,   0.0000000000)


Analysis of symmetry for initial positions (statically):
=====================================================================
 Subroutine PRICEL returns following result:
 
  LATTYP: Found a base centered monoclinic cell.
 ALAT       =     8.4066107154
 B/A-ratio  =     0.3782652174
 C/A-ratio  =     0.7071067812
 COS(beta)  =    -0.6679525107
  
  Lattice vectors:
  
 A1 = (   2.9572878273,  -2.9870093130,   1.5899642149)
 A2 = (   2.9572878273,  -2.9870093130,  -1.5899642149)
 A3 = (  -0.0297214857,   5.9442971404,   0.0000000000)
 
   2 primitive cells build up your supercell.
 

 Routine SETGRP: Setting up the symmetry group for a 
 simple monoclinic supercell.


 Subroutine GETGRP returns: Found  4 space group operations
 (whereof  2 operations were pure point group operations)
 out of a pool of  4 trial point group operations.


The static configuration has the point symmetry C_2 .
 The point group associated with its full space group is C_2h.


Analysis of symmetry for dynamics (positions and initial velocities):
=====================================================================
 Subroutine PRICEL returns following result:
 
  LATTYP: Found a base centered monoclinic cell.
 ALAT       =     8.4066107154
 B/A-ratio  =     0.3782652174
 C/A-ratio  =     0.7071067812
 COS(beta)  =    -0.6679525107
  
  Lattice vectors:
  
 A1 = (   2.9572878273,  -2.9870093130,   1.5899642149)
 A2 = (   2.9572878273,  -2.9870093130,  -1.5899642149)
 A3 = (  -0.0297214857,   5.9442971404,   0.0000000000)
 
   2 primitive cells build up your supercell.
 

 Routine SETGRP: Setting up the symmetry group for a 
 simple monoclinic supercell.


 Subroutine GETGRP returns: Found  4 space group operations
 (whereof  2 operations were pure point group operations)
 out of a pool of  4 trial point group operations.


The dynamic configuration has the point symmetry C_2 .
 The point group associated with its full space group is C_2h.


 KPOINTS: Automatic                               

Automatic generation of k-mesh.
Space group operators:
 irot       det(A)        alpha          n_x          n_y          n_z        tau_x        tau_y        tau_z
    1     1.000000     0.000001     1.000000     0.000000     0.000000     0.000000    -0.000000    -0.000000
    2     1.000000   180.000000     0.000000     0.000000     1.000000     0.000000    -0.000000    -0.000000
    3    -1.000000     0.000001     1.000000     0.000000     0.000000     0.500000    -0.000000     0.250000
    4    -1.000000   180.000000     0.000000     0.000000     1.000000     0.500000    -0.000000     0.250000
 
 Subroutine IBZKPT returns following result:
 ===========================================
 
 Found    666 irreducible k-points:
 
 Following reciprocal coordinates:
            Coordinates               Weight
  0.000000  0.000000  0.000000      1.000000
  0.083333  0.000000  0.000000      2.000000
  0.166667  0.000000  0.000000      2.000000
  0.250000  0.000000  0.000000      2.000000
  0.333333  0.000000  0.000000      2.000000
  0.416667  0.000000  0.000000      2.000000
  0.500000  0.000000  0.000000      1.000000
  0.000000  0.083333  0.000000      2.000000
  0.083333  0.083333  0.000000      2.000000
  0.166667  0.083333  0.000000      2.000000
  0.250000  0.083333  0.000000      2.000000
  0.333333  0.083333  0.000000      2.000000
  0.416667  0.083333  0.000000      2.000000
  0.500000  0.083333  0.000000      2.000000
 -0.416667  0.083333  0.000000      2.000000
 -0.333333  0.083333  0.000000      2.000000
 -0.250000  0.083333  0.000000      2.000000
 -0.166667  0.083333  0.000000      2.000000
 -0.083333  0.083333  0.000000      2.000000
  0.000000  0.166667  0.000000      2.000000
  0.083333  0.166667  0.000000      2.000000
  0.166667  0.166667  0.000000      2.000000
  0.250000  0.166667  0.000000      2.000000
  0.333333  0.166667  0.000000      2.000000
  0.416667  0.166667  0.000000      2.000000
  0.500000  0.166667  0.000000      2.000000
 -0.416667  0.166667  0.000000      2.000000
 -0.333333  0.166667  0.000000      2.000000
 -0.250000  0.166667  0.000000      2.000000
 -0.166667  0.166667  0.000000      2.000000
 -0.083333  0.166667  0.000000      2.000000
  0.000000  0.250000  0.000000      2.000000
  0.083333  0.250000  0.000000      2.000000
  0.166667  0.250000  0.000000      2.000000
  0.250000  0.250000  0.000000      2.000000
  0.333333  0.250000  0.000000      2.000000
  0.416667  0.250000  0.000000      2.000000
  0.500000  0.250000  0.000000      2.000000
 -0.416667  0.250000  0.000000      2.000000
 -0.333333  0.250000  0.000000      2.000000
 -0.250000  0.250000  0.000000      2.000000
 -0.166667  0.250000  0.000000      2.000000
 -0.083333  0.250000  0.000000      2.000000
  0.000000  0.333333  0.000000      2.000000
  0.083333  0.333333  0.000000      2.000000
  0.166667  0.333333  0.000000      2.000000
  0.250000  0.333333  0.000000      2.000000
  0.333333  0.333333  0.000000      2.000000
  0.416667  0.333333  0.000000      2.000000
  0.500000  0.333333  0.000000      2.000000
 -0.416667  0.333333  0.000000      2.000000
 -0.333333  0.333333  0.000000      2.000000
 -0.250000  0.333333  0.000000      2.000000
 -0.166667  0.333333  0.000000      2.000000
 -0.083333  0.333333  0.000000      2.000000
  0.000000  0.416667  0.000000      2.000000
  0.083333  0.416667  0.000000      2.000000
  0.166667  0.416667  0.000000      2.000000
  0.250000  0.416667  0.000000      2.000000
  0.333333  0.416667  0.000000      2.000000
  0.416667  0.416667  0.000000      2.000000
  0.500000  0.416667  0.000000      2.000000
 -0.416667  0.416667  0.000000      2.000000
 -0.333333  0.416667  0.000000      2.000000
 -0.250000  0.416667  0.000000      2.000000
 -0.166667  0.416667  0.000000      2.000000
 -0.083333  0.416667  0.000000      2.000000
  0.000000  0.500000  0.000000      1.000000
  0.083333  0.500000  0.000000      2.000000
  0.166667  0.500000  0.000000      2.000000
  0.250000  0.500000  0.000000      2.000000
  0.333333  0.500000  0.000000      2.000000
  0.416667  0.500000  0.000000      2.000000
  0.500000  0.500000  0.000000      1.000000
  0.000000  0.000000  0.062500      2.000000
  0.083333  0.000000  0.062500      4.000000
  0.166667  0.000000  0.062500      4.000000
  0.250000  0.000000  0.062500      4.000000
  0.333333  0.000000  0.062500      4.000000
  0.416667  0.000000  0.062500      4.000000
  0.500000  0.000000  0.062500      2.000000
  0.000000  0.083333  0.062500      4.000000
  0.083333  0.083333  0.062500      4.000000
  0.166667  0.083333  0.062500      4.000000
  0.250000  0.083333  0.062500      4.000000
  0.333333  0.083333  0.062500      4.000000
  0.416667  0.083333  0.062500      4.000000
  0.500000  0.083333  0.062500      4.000000
 -0.416667  0.083333  0.062500      4.000000
 -0.333333  0.083333  0.062500      4.000000
 -0.250000  0.083333  0.062500      4.000000
 -0.166667  0.083333  0.062500      4.000000
 -0.083333  0.083333  0.062500      4.000000
  0.000000  0.166667  0.062500      4.000000
  0.083333  0.166667  0.062500      4.000000
  0.166667  0.166667  0.062500      4.000000
  0.250000  0.166667  0.062500      4.000000
  0.333333  0.166667  0.062500      4.000000
  0.416667  0.166667  0.062500      4.000000
  0.500000  0.166667  0.062500      4.000000
 -0.416667  0.166667  0.062500      4.000000
 -0.333333  0.166667  0.062500      4.000000
 -0.250000  0.166667  0.062500      4.000000
 -0.166667  0.166667  0.062500      4.000000
 -0.083333  0.166667  0.062500      4.000000
  0.000000  0.250000  0.062500      4.000000
  0.083333  0.250000  0.062500      4.000000
  0.166667  0.250000  0.062500      4.000000
  0.250000  0.250000  0.062500      4.000000
  0.333333  0.250000  0.062500      4.000000
  0.416667  0.250000  0.062500      4.000000
  0.500000  0.250000  0.062500      4.000000
 -0.416667  0.250000  0.062500      4.000000
 -0.333333  0.250000  0.062500      4.000000
 -0.250000  0.250000  0.062500      4.000000
 -0.166667  0.250000  0.062500      4.000000
 -0.083333  0.250000  0.062500      4.000000
  0.000000  0.333333  0.062500      4.000000
  0.083333  0.333333  0.062500      4.000000
  0.166667  0.333333  0.062500      4.000000
  0.250000  0.333333  0.062500      4.000000
  0.333333  0.333333  0.062500      4.000000
  0.416667  0.333333  0.062500      4.000000
  0.500000  0.333333  0.062500      4.000000
 -0.416667  0.333333  0.062500      4.000000
 -0.333333  0.333333  0.062500      4.000000
 -0.250000  0.333333  0.062500      4.000000
 -0.166667  0.333333  0.062500      4.000000
 -0.083333  0.333333  0.062500      4.000000
  0.000000  0.416667  0.062500      4.000000
  0.083333  0.416667  0.062500      4.000000
  0.166667  0.416667  0.062500      4.000000
  0.250000  0.416667  0.062500      4.000000
  0.333333  0.416667  0.062500      4.000000
  0.416667  0.416667  0.062500      4.000000
  0.500000  0.416667  0.062500      4.000000
 -0.416667  0.416667  0.062500      4.000000
 -0.333333  0.416667  0.062500      4.000000
 -0.250000  0.416667  0.062500      4.000000
 -0.166667  0.416667  0.062500      4.000000
 -0.083333  0.416667  0.062500      4.000000
  0.000000  0.500000  0.062500      2.000000
  0.083333  0.500000  0.062500      4.000000
  0.166667  0.500000  0.062500      4.000000
  0.250000  0.500000  0.062500      4.000000
  0.333333  0.500000  0.062500      4.000000
  0.416667  0.500000  0.062500      4.000000
  0.500000  0.500000  0.062500      2.000000
  0.000000  0.000000  0.125000      2.000000
  0.083333  0.000000  0.125000      4.000000
  0.166667  0.000000  0.125000      4.000000
  0.250000  0.000000  0.125000      4.000000
  0.333333  0.000000  0.125000      4.000000
  0.416667  0.000000  0.125000      4.000000
  0.500000  0.000000  0.125000      2.000000
  0.000000  0.083333  0.125000      4.000000
  0.083333  0.083333  0.125000      4.000000
  0.166667  0.083333  0.125000      4.000000
  0.250000  0.083333  0.125000      4.000000
  0.333333  0.083333  0.125000      4.000000
  0.416667  0.083333  0.125000      4.000000
  0.500000  0.083333  0.125000      4.000000
 -0.416667  0.083333  0.125000      4.000000
 -0.333333  0.083333  0.125000      4.000000
 -0.250000  0.083333  0.125000      4.000000
 -0.166667  0.083333  0.125000      4.000000
 -0.083333  0.083333  0.125000      4.000000
  0.000000  0.166667  0.125000      4.000000
  0.083333  0.166667  0.125000      4.000000
  0.166667  0.166667  0.125000      4.000000
  0.250000  0.166667  0.125000      4.000000
  0.333333  0.166667  0.125000      4.000000
  0.416667  0.166667  0.125000      4.000000
  0.500000  0.166667  0.125000      4.000000
 -0.416667  0.166667  0.125000      4.000000
 -0.333333  0.166667  0.125000      4.000000
 -0.250000  0.166667  0.125000      4.000000
 -0.166667  0.166667  0.125000      4.000000
 -0.083333  0.166667  0.125000      4.000000
  0.000000  0.250000  0.125000      4.000000
  0.083333  0.250000  0.125000      4.000000
  0.166667  0.250000  0.125000      4.000000
  0.250000  0.250000  0.125000      4.000000
  0.333333  0.250000  0.125000      4.000000
  0.416667  0.250000  0.125000      4.000000
  0.500000  0.250000  0.125000      4.000000
 -0.416667  0.250000  0.125000      4.000000
 -0.333333  0.250000  0.125000      4.000000
 -0.250000  0.250000  0.125000      4.000000
 -0.166667  0.250000  0.125000      4.000000
 -0.083333  0.250000  0.125000      4.000000
  0.000000  0.333333  0.125000      4.000000
  0.083333  0.333333  0.125000      4.000000
  0.166667  0.333333  0.125000      4.000000
  0.250000  0.333333  0.125000      4.000000
  0.333333  0.333333  0.125000      4.000000
  0.416667  0.333333  0.125000      4.000000
  0.500000  0.333333  0.125000      4.000000
 -0.416667  0.333333  0.125000      4.000000
 -0.333333  0.333333  0.125000      4.000000
 -0.250000  0.333333  0.125000      4.000000
 -0.166667  0.333333  0.125000      4.000000
 -0.083333  0.333333  0.125000      4.000000
  0.000000  0.416667  0.125000      4.000000
  0.083333  0.416667  0.125000      4.000000
  0.166667  0.416667  0.125000      4.000000
  0.250000  0.416667  0.125000      4.000000
  0.333333  0.416667  0.125000      4.000000
  0.416667  0.416667  0.125000      4.000000
  0.500000  0.416667  0.125000      4.000000
 -0.416667  0.416667  0.125000      4.000000
 -0.333333  0.416667  0.125000      4.000000
 -0.250000  0.416667  0.125000      4.000000
 -0.166667  0.416667  0.125000      4.000000
 -0.083333  0.416667  0.125000      4.000000
  0.000000  0.500000  0.125000      2.000000
  0.083333  0.500000  0.125000      4.000000
  0.166667  0.500000  0.125000      4.000000
  0.250000  0.500000  0.125000      4.000000
  0.333333  0.500000  0.125000      4.000000
  0.416667  0.500000  0.125000      4.000000
  0.500000  0.500000  0.125000      2.000000
  0.000000  0.000000  0.187500      2.000000
  0.083333  0.000000  0.187500      4.000000
  0.166667  0.000000  0.187500      4.000000
  0.250000  0.000000  0.187500      4.000000
  0.333333  0.000000  0.187500      4.000000
  0.416667  0.000000  0.187500      4.000000
  0.500000  0.000000  0.187500      2.000000
  0.000000  0.083333  0.187500      4.000000
  0.083333  0.083333  0.187500      4.000000
  0.166667  0.083333  0.187500      4.000000
  0.250000  0.083333  0.187500      4.000000
  0.333333  0.083333  0.187500      4.000000
  0.416667  0.083333  0.187500      4.000000
  0.500000  0.083333  0.187500      4.000000
 -0.416667  0.083333  0.187500      4.000000
 -0.333333  0.083333  0.187500      4.000000
 -0.250000  0.083333  0.187500      4.000000
 -0.166667  0.083333  0.187500      4.000000
 -0.083333  0.083333  0.187500      4.000000
  0.000000  0.166667  0.187500      4.000000
  0.083333  0.166667  0.187500      4.000000
  0.166667  0.166667  0.187500      4.000000
  0.250000  0.166667  0.187500      4.000000
  0.333333  0.166667  0.187500      4.000000
  0.416667  0.166667  0.187500      4.000000
  0.500000  0.166667  0.187500      4.000000
 -0.416667  0.166667  0.187500      4.000000
 -0.333333  0.166667  0.187500      4.000000
 -0.250000  0.166667  0.187500      4.000000
 -0.166667  0.166667  0.187500      4.000000
 -0.083333  0.166667  0.187500      4.000000
  0.000000  0.250000  0.187500      4.000000
  0.083333  0.250000  0.187500      4.000000
  0.166667  0.250000  0.187500      4.000000
  0.250000  0.250000  0.187500      4.000000
  0.333333  0.250000  0.187500      4.000000
  0.416667  0.250000  0.187500      4.000000
  0.500000  0.250000  0.187500      4.000000
 -0.416667  0.250000  0.187500      4.000000
 -0.333333  0.250000  0.187500      4.000000
 -0.250000  0.250000  0.187500      4.000000
 -0.166667  0.250000  0.187500      4.000000
 -0.083333  0.250000  0.187500      4.000000
  0.000000  0.333333  0.187500      4.000000
  0.083333  0.333333  0.187500      4.000000
  0.166667  0.333333  0.187500      4.000000
  0.250000  0.333333  0.187500      4.000000
  0.333333  0.333333  0.187500      4.000000
  0.416667  0.333333  0.187500      4.000000
  0.500000  0.333333  0.187500      4.000000
 -0.416667  0.333333  0.187500      4.000000
 -0.333333  0.333333  0.187500      4.000000
 -0.250000  0.333333  0.187500      4.000000
 -0.166667  0.333333  0.187500      4.000000
 -0.083333  0.333333  0.187500      4.000000
  0.000000  0.416667  0.187500      4.000000
  0.083333  0.416667  0.187500      4.000000
  0.166667  0.416667  0.187500      4.000000
  0.250000  0.416667  0.187500      4.000000
  0.333333  0.416667  0.187500      4.000000
  0.416667  0.416667  0.187500      4.000000
  0.500000  0.416667  0.187500      4.000000
 -0.416667  0.416667  0.187500      4.000000
 -0.333333  0.416667  0.187500      4.000000
 -0.250000  0.416667  0.187500      4.000000
 -0.166667  0.416667  0.187500      4.000000
 -0.083333  0.416667  0.187500      4.000000
  0.000000  0.500000  0.187500      2.000000
  0.083333  0.500000  0.187500      4.000000
  0.166667  0.500000  0.187500      4.000000
  0.250000  0.500000  0.187500      4.000000
  0.333333  0.500000  0.187500      4.000000
  0.416667  0.500000  0.187500      4.000000
  0.500000  0.500000  0.187500      2.000000
  0.000000  0.000000  0.250000      2.000000
  0.083333  0.000000  0.250000      4.000000
  0.166667  0.000000  0.250000      4.000000
  0.250000  0.000000  0.250000      4.000000
  0.333333  0.000000  0.250000      4.000000
  0.416667  0.000000  0.250000      4.000000
  0.500000  0.000000  0.250000      2.000000
  0.000000  0.083333  0.250000      4.000000
  0.083333  0.083333  0.250000      4.000000
  0.166667  0.083333  0.250000      4.000000
  0.250000  0.083333  0.250000      4.000000
  0.333333  0.083333  0.250000      4.000000
  0.416667  0.083333  0.250000      4.000000
  0.500000  0.083333  0.250000      4.000000
 -0.416667  0.083333  0.250000      4.000000
 -0.333333  0.083333  0.250000      4.000000
 -0.250000  0.083333  0.250000      4.000000
 -0.166667  0.083333  0.250000      4.000000
 -0.083333  0.083333  0.250000      4.000000
  0.000000  0.166667  0.250000      4.000000
  0.083333  0.166667  0.250000      4.000000
  0.166667  0.166667  0.250000      4.000000
  0.250000  0.166667  0.250000      4.000000
  0.333333  0.166667  0.250000      4.000000
  0.416667  0.166667  0.250000      4.000000
  0.500000  0.166667  0.250000      4.000000
 -0.416667  0.166667  0.250000      4.000000
 -0.333333  0.166667  0.250000      4.000000
 -0.250000  0.166667  0.250000      4.000000
 -0.166667  0.166667  0.250000      4.000000
 -0.083333  0.166667  0.250000      4.000000
  0.000000  0.250000  0.250000      4.000000
  0.083333  0.250000  0.250000      4.000000
  0.166667  0.250000  0.250000      4.000000
  0.250000  0.250000  0.250000      4.000000
  0.333333  0.250000  0.250000      4.000000
  0.416667  0.250000  0.250000      4.000000
  0.500000  0.250000  0.250000      4.000000
 -0.416667  0.250000  0.250000      4.000000
 -0.333333  0.250000  0.250000      4.000000
 -0.250000  0.250000  0.250000      4.000000
 -0.166667  0.250000  0.250000      4.000000
 -0.083333  0.250000  0.250000      4.000000
  0.000000  0.333333  0.250000      4.000000
  0.083333  0.333333  0.250000      4.000000
  0.166667  0.333333  0.250000      4.000000
  0.250000  0.333333  0.250000      4.000000
  0.333333  0.333333  0.250000      4.000000
  0.416667  0.333333  0.250000      4.000000
  0.500000  0.333333  0.250000      4.000000
 -0.416667  0.333333  0.250000      4.000000
 -0.333333  0.333333  0.250000      4.000000
 -0.250000  0.333333  0.250000      4.000000
 -0.166667  0.333333  0.250000      4.000000
 -0.083333  0.333333  0.250000      4.000000
  0.000000  0.416667  0.250000      4.000000
  0.083333  0.416667  0.250000      4.000000
  0.166667  0.416667  0.250000      4.000000
  0.250000  0.416667  0.250000      4.000000
  0.333333  0.416667  0.250000      4.000000
  0.416667  0.416667  0.250000      4.000000
  0.500000  0.416667  0.250000      4.000000
 -0.416667  0.416667  0.250000      4.000000
 -0.333333  0.416667  0.250000      4.000000
 -0.250000  0.416667  0.250000      4.000000
 -0.166667  0.416667  0.250000      4.000000
 -0.083333  0.416667  0.250000      4.000000
  0.000000  0.500000  0.250000      2.000000
  0.083333  0.500000  0.250000      4.000000
  0.166667  0.500000  0.250000      4.000000
  0.250000  0.500000  0.250000      4.000000
  0.333333  0.500000  0.250000      4.000000
  0.416667  0.500000  0.250000      4.000000
  0.500000  0.500000  0.250000      2.000000
  0.000000  0.000000  0.312500      2.000000
  0.083333  0.000000  0.312500      4.000000
  0.166667  0.000000  0.312500      4.000000
  0.250000  0.000000  0.312500      4.000000
  0.333333  0.000000  0.312500      4.000000
  0.416667  0.000000  0.312500      4.000000
  0.500000  0.000000  0.312500      2.000000
  0.000000  0.083333  0.312500      4.000000
  0.083333  0.083333  0.312500      4.000000
  0.166667  0.083333  0.312500      4.000000
  0.250000  0.083333  0.312500      4.000000
  0.333333  0.083333  0.312500      4.000000
  0.416667  0.083333  0.312500      4.000000
  0.500000  0.083333  0.312500      4.000000
 -0.416667  0.083333  0.312500      4.000000
 -0.333333  0.083333  0.312500      4.000000
 -0.250000  0.083333  0.312500      4.000000
 -0.166667  0.083333  0.312500      4.000000
 -0.083333  0.083333  0.312500      4.000000
  0.000000  0.166667  0.312500      4.000000
  0.083333  0.166667  0.312500      4.000000
  0.166667  0.166667  0.312500      4.000000
  0.250000  0.166667  0.312500      4.000000
  0.333333  0.166667  0.312500      4.000000
  0.416667  0.166667  0.312500      4.000000
  0.500000  0.166667  0.312500      4.000000
 -0.416667  0.166667  0.312500      4.000000
 -0.333333  0.166667  0.312500      4.000000
 -0.250000  0.166667  0.312500      4.000000
 -0.166667  0.166667  0.312500      4.000000
 -0.083333  0.166667  0.312500      4.000000
  0.000000  0.250000  0.312500      4.000000
  0.083333  0.250000  0.312500      4.000000
  0.166667  0.250000  0.312500      4.000000
  0.250000  0.250000  0.312500      4.000000
  0.333333  0.250000  0.312500      4.000000
  0.416667  0.250000  0.312500      4.000000
  0.500000  0.250000  0.312500      4.000000
 -0.416667  0.250000  0.312500      4.000000
 -0.333333  0.250000  0.312500      4.000000
 -0.250000  0.250000  0.312500      4.000000
 -0.166667  0.250000  0.312500      4.000000
 -0.083333  0.250000  0.312500      4.000000
  0.000000  0.333333  0.312500      4.000000
  0.083333  0.333333  0.312500      4.000000
  0.166667  0.333333  0.312500      4.000000
  0.250000  0.333333  0.312500      4.000000
  0.333333  0.333333  0.312500      4.000000
  0.416667  0.333333  0.312500      4.000000
  0.500000  0.333333  0.312500      4.000000
 -0.416667  0.333333  0.312500      4.000000
 -0.333333  0.333333  0.312500      4.000000
 -0.250000  0.333333  0.312500      4.000000
 -0.166667  0.333333  0.312500      4.000000
 -0.083333  0.333333  0.312500      4.000000
  0.000000  0.416667  0.312500      4.000000
  0.083333  0.416667  0.312500      4.000000
  0.166667  0.416667  0.312500      4.000000
  0.250000  0.416667  0.312500      4.000000
  0.333333  0.416667  0.312500      4.000000
  0.416667  0.416667  0.312500      4.000000
  0.500000  0.416667  0.312500      4.000000
 -0.416667  0.416667  0.312500      4.000000
 -0.333333  0.416667  0.312500      4.000000
 -0.250000  0.416667  0.312500      4.000000
 -0.166667  0.416667  0.312500      4.000000
 -0.083333  0.416667  0.312500      4.000000
  0.000000  0.500000  0.312500      2.000000
  0.083333  0.500000  0.312500      4.000000
  0.166667  0.500000  0.312500      4.000000
  0.250000  0.500000  0.312500      4.000000
  0.333333  0.500000  0.312500      4.000000
  0.416667  0.500000  0.312500      4.000000
  0.500000  0.500000  0.312500      2.000000
  0.000000  0.000000  0.375000      2.000000
  0.083333  0.000000  0.375000      4.000000
  0.166667  0.000000  0.375000      4.000000
  0.250000  0.000000  0.375000      4.000000
  0.333333  0.000000  0.375000      4.000000
  0.416667  0.000000  0.375000      4.000000
  0.500000  0.000000  0.375000      2.000000
  0.000000  0.083333  0.375000      4.000000
  0.083333  0.083333  0.375000      4.000000
  0.166667  0.083333  0.375000      4.000000
  0.250000  0.083333  0.375000      4.000000
  0.333333  0.083333  0.375000      4.000000
  0.416667  0.083333  0.375000      4.000000
  0.500000  0.083333  0.375000      4.000000
 -0.416667  0.083333  0.375000      4.000000
 -0.333333  0.083333  0.375000      4.000000
 -0.250000  0.083333  0.375000      4.000000
 -0.166667  0.083333  0.375000      4.000000
 -0.083333  0.083333  0.375000      4.000000
  0.000000  0.166667  0.375000      4.000000
  0.083333  0.166667  0.375000      4.000000
  0.166667  0.166667  0.375000      4.000000
  0.250000  0.166667  0.375000      4.000000
  0.333333  0.166667  0.375000      4.000000
  0.416667  0.166667  0.375000      4.000000
  0.500000  0.166667  0.375000      4.000000
 -0.416667  0.166667  0.375000      4.000000
 -0.333333  0.166667  0.375000      4.000000
 -0.250000  0.166667  0.375000      4.000000
 -0.166667  0.166667  0.375000      4.000000
 -0.083333  0.166667  0.375000      4.000000
  0.000000  0.250000  0.375000      4.000000
  0.083333  0.250000  0.375000      4.000000
  0.166667  0.250000  0.375000      4.000000
  0.250000  0.250000  0.375000      4.000000
  0.333333  0.250000  0.375000      4.000000
  0.416667  0.250000  0.375000      4.000000
  0.500000  0.250000  0.375000      4.000000
 -0.416667  0.250000  0.375000      4.000000
 -0.333333  0.250000  0.375000      4.000000
 -0.250000  0.250000  0.375000      4.000000
 -0.166667  0.250000  0.375000      4.000000
 -0.083333  0.250000  0.375000      4.000000
  0.000000  0.333333  0.375000      4.000000
  0.083333  0.333333  0.375000      4.000000
  0.166667  0.333333  0.375000      4.000000
  0.250000  0.333333  0.375000      4.000000
  0.333333  0.333333  0.375000      4.000000
  0.416667  0.333333  0.375000      4.000000
  0.500000  0.333333  0.375000      4.000000
 -0.416667  0.333333  0.375000      4.000000
 -0.333333  0.333333  0.375000      4.000000
 -0.250000  0.333333  0.375000      4.000000
 -0.166667  0.333333  0.375000      4.000000
 -0.083333  0.333333  0.375000      4.000000
  0.000000  0.416667  0.375000      4.000000
  0.083333  0.416667  0.375000      4.000000
  0.166667  0.416667  0.375000      4.000000
  0.250000  0.416667  0.375000      4.000000
  0.333333  0.416667  0.375000      4.000000
  0.416667  0.416667  0.375000      4.000000
  0.500000  0.416667  0.375000      4.000000
 -0.416667  0.416667  0.375000      4.000000
 -0.333333  0.416667  0.375000      4.000000
 -0.250000  0.416667  0.375000      4.000000
 -0.166667  0.416667  0.375000      4.000000
 -0.083333  0.416667  0.375000      4.000000
  0.000000  0.500000  0.375000      2.000000
  0.083333  0.500000  0.375000      4.000000
  0.166667  0.500000  0.375000      4.000000
  0.250000  0.500000  0.375000      4.000000
  0.333333  0.500000  0.375000      4.000000
  0.416667  0.500000  0.375000      4.000000
  0.500000  0.500000  0.375000      2.000000
  0.000000  0.000000  0.437500      2.000000
  0.083333  0.000000  0.437500      4.000000
  0.166667  0.000000  0.437500      4.000000
  0.250000  0.000000  0.437500      4.000000
  0.333333  0.000000  0.437500      4.000000
  0.416667  0.000000  0.437500      4.000000
  0.500000  0.000000  0.437500      2.000000
  0.000000  0.083333  0.437500      4.000000
  0.083333  0.083333  0.437500      4.000000
  0.166667  0.083333  0.437500      4.000000
  0.250000  0.083333  0.437500      4.000000
  0.333333  0.083333  0.437500      4.000000
  0.416667  0.083333  0.437500      4.000000
  0.500000  0.083333  0.437500      4.000000
 -0.416667  0.083333  0.437500      4.000000
 -0.333333  0.083333  0.437500      4.000000
 -0.250000  0.083333  0.437500      4.000000
 -0.166667  0.083333  0.437500      4.000000
 -0.083333  0.083333  0.437500      4.000000
  0.000000  0.166667  0.437500      4.000000
  0.083333  0.166667  0.437500      4.000000
  0.166667  0.166667  0.437500      4.000000
  0.250000  0.166667  0.437500      4.000000
  0.333333  0.166667  0.437500      4.000000
  0.416667  0.166667  0.437500      4.000000
  0.500000  0.166667  0.437500      4.000000
 -0.416667  0.166667  0.437500      4.000000
 -0.333333  0.166667  0.437500      4.000000
 -0.250000  0.166667  0.437500      4.000000
 -0.166667  0.166667  0.437500      4.000000
 -0.083333  0.166667  0.437500      4.000000
  0.000000  0.250000  0.437500      4.000000
  0.083333  0.250000  0.437500      4.000000
  0.166667  0.250000  0.437500      4.000000
  0.250000  0.250000  0.437500      4.000000
  0.333333  0.250000  0.437500      4.000000
  0.416667  0.250000  0.437500      4.000000
  0.500000  0.250000  0.437500      4.000000
 -0.416667  0.250000  0.437500      4.000000
 -0.333333  0.250000  0.437500      4.000000
 -0.250000  0.250000  0.437500      4.000000
 -0.166667  0.250000  0.437500      4.000000
 -0.083333  0.250000  0.437500      4.000000
  0.000000  0.333333  0.437500      4.000000
  0.083333  0.333333  0.437500      4.000000
  0.166667  0.333333  0.437500      4.000000
  0.250000  0.333333  0.437500      4.000000
  0.333333  0.333333  0.437500      4.000000
  0.416667  0.333333  0.437500      4.000000
  0.500000  0.333333  0.437500      4.000000
 -0.416667  0.333333  0.437500      4.000000
 -0.333333  0.333333  0.437500      4.000000
 -0.250000  0.333333  0.437500      4.000000
 -0.166667  0.333333  0.437500      4.000000
 -0.083333  0.333333  0.437500      4.000000
  0.000000  0.416667  0.437500      4.000000
  0.083333  0.416667  0.437500      4.000000
  0.166667  0.416667  0.437500      4.000000
  0.250000  0.416667  0.437500      4.000000
  0.333333  0.416667  0.437500      4.000000
  0.416667  0.416667  0.437500      4.000000
  0.500000  0.416667  0.437500      4.000000
 -0.416667  0.416667  0.437500      4.000000
 -0.333333  0.416667  0.437500      4.000000
 -0.250000  0.416667  0.437500      4.000000
 -0.166667  0.416667  0.437500      4.000000
 -0.083333  0.416667  0.437500      4.000000
  0.000000  0.500000  0.437500      2.000000
  0.083333  0.500000  0.437500      4.000000
  0.166667  0.500000  0.437500      4.000000
  0.250000  0.500000  0.437500      4.000000
  0.333333  0.500000  0.437500      4.000000
  0.416667  0.500000  0.437500      4.000000
  0.500000  0.500000  0.437500      2.000000
  0.000000  0.000000  0.500000      1.000000
  0.083333  0.000000  0.500000      2.000000
  0.166667  0.000000  0.500000      2.000000
  0.250000  0.000000  0.500000      2.000000
  0.333333  0.000000  0.500000      2.000000
  0.416667  0.000000  0.500000      2.000000
  0.500000  0.000000  0.500000      1.000000
  0.000000  0.083333  0.500000      2.000000
  0.083333  0.083333  0.500000      2.000000
  0.166667  0.083333  0.500000      2.000000
  0.250000  0.083333  0.500000      2.000000
  0.333333  0.083333  0.500000      2.000000
  0.416667  0.083333  0.500000      2.000000
  0.500000  0.083333  0.500000      2.000000
 -0.416667  0.083333  0.500000      2.000000
 -0.333333  0.083333  0.500000      2.000000
 -0.250000  0.083333  0.500000      2.000000
 -0.166667  0.083333  0.500000      2.000000
 -0.083333  0.083333  0.500000      2.000000
  0.000000  0.166667  0.500000      2.000000
  0.083333  0.166667  0.500000      2.000000
  0.166667  0.166667  0.500000      2.000000
  0.250000  0.166667  0.500000      2.000000
  0.333333  0.166667  0.500000      2.000000
  0.416667  0.166667  0.500000      2.000000
  0.500000  0.166667  0.500000      2.000000
 -0.416667  0.166667  0.500000      2.000000
 -0.333333  0.166667  0.500000      2.000000
 -0.250000  0.166667  0.500000      2.000000
 -0.166667  0.166667  0.500000      2.000000
 -0.083333  0.166667  0.500000      2.000000
  0.000000  0.250000  0.500000      2.000000
  0.083333  0.250000  0.500000      2.000000
  0.166667  0.250000  0.500000      2.000000
  0.250000  0.250000  0.500000      2.000000
  0.333333  0.250000  0.500000      2.000000
  0.416667  0.250000  0.500000      2.000000
  0.500000  0.250000  0.500000      2.000000
 -0.416667  0.250000  0.500000      2.000000
 -0.333333  0.250000  0.500000      2.000000
 -0.250000  0.250000  0.500000      2.000000
 -0.166667  0.250000  0.500000      2.000000
 -0.083333  0.250000  0.500000      2.000000
  0.000000  0.333333  0.500000      2.000000
  0.083333  0.333333  0.500000      2.000000
  0.166667  0.333333  0.500000      2.000000
  0.250000  0.333333  0.500000      2.000000
  0.333333  0.333333  0.500000      2.000000
  0.416667  0.333333  0.500000      2.000000
  0.500000  0.333333  0.500000      2.000000
 -0.416667  0.333333  0.500000      2.000000
 -0.333333  0.333333  0.500000      2.000000
 -0.250000  0.333333  0.500000      2.000000
 -0.166667  0.333333  0.500000      2.000000
 -0.083333  0.333333  0.500000      2.000000
  0.000000  0.416667  0.500000      2.000000
  0.083333  0.416667  0.500000      2.000000
  0.166667  0.416667  0.500000      2.000000
  0.250000  0.416667  0.500000      2.000000
  0.333333  0.416667  0.500000      2.000000
  0.416667  0.416667  0.500000      2.000000
  0.500000  0.416667  0.500000      2.000000
 -0.416667  0.416667  0.500000      2.000000
 -0.333333  0.416667  0.500000      2.000000
 -0.250000  0.416667  0.500000      2.000000
 -0.166667  0.416667  0.500000      2.000000
 -0.083333  0.416667  0.500000      2.000000
  0.000000  0.500000  0.500000      1.000000
  0.083333  0.500000  0.500000      2.000000
  0.166667  0.500000  0.500000      2.000000
  0.250000  0.500000  0.500000      2.000000
  0.333333  0.500000  0.500000      2.000000
  0.416667  0.500000  0.500000      2.000000
  0.500000  0.500000  0.500000      1.000000
 
 Following cartesian coordinates:
            Coordinates               Weight
  0.000000  0.000000  0.000000      1.000000
  0.014161  0.000071  0.000000      2.000000
  0.028322  0.000142  0.000000      2.000000
  0.042483  0.000212  0.000000      2.000000
  0.056644  0.000283  0.000000      2.000000
  0.070805  0.000354  0.000000      2.000000
  0.084966  0.000425  0.000000      1.000000
  0.000071  0.014019  0.000000      2.000000
  0.014232  0.014090  0.000000      2.000000
  0.028393  0.014161  0.000000      2.000000
  0.042554  0.014232  0.000000      2.000000
  0.056715  0.014303  0.000000      2.000000
  0.070876  0.014373  0.000000      2.000000
  0.085037  0.014444  0.000000      2.000000
 -0.070734  0.013665  0.000000      2.000000
 -0.056573  0.013736  0.000000      2.000000
 -0.042412  0.013807  0.000000      2.000000
 -0.028251  0.013878  0.000000      2.000000
 -0.014090  0.013949  0.000000      2.000000
  0.000142  0.028039  0.000000      2.000000
  0.014303  0.028110  0.000000      2.000000
  0.028464  0.028180  0.000000      2.000000
  0.042625  0.028251  0.000000      2.000000
  0.056786  0.028322  0.000000      2.000000
  0.070947  0.028393  0.000000      2.000000
  0.085108  0.028464  0.000000      2.000000
 -0.070663  0.027685  0.000000      2.000000
 -0.056502  0.027756  0.000000      2.000000
 -0.042341  0.027826  0.000000      2.000000
 -0.028180  0.027897  0.000000      2.000000
 -0.014019  0.027968  0.000000      2.000000
  0.000212  0.042058  0.000000      2.000000
  0.014373  0.042129  0.000000      2.000000
  0.028534  0.042200  0.000000      2.000000
  0.042695  0.042271  0.000000      2.000000
  0.056856  0.042341  0.000000      2.000000
  0.071017  0.042412  0.000000      2.000000
  0.085178  0.042483  0.000000      2.000000
 -0.070593  0.041704  0.000000      2.000000
 -0.056432  0.041775  0.000000      2.000000
 -0.042271  0.041846  0.000000      2.000000
 -0.028110  0.041917  0.000000      2.000000
 -0.013949  0.041987  0.000000      2.000000
  0.000283  0.056078  0.000000      2.000000
  0.014444  0.056148  0.000000      2.000000
  0.028605  0.056219  0.000000      2.000000
  0.042766  0.056290  0.000000      2.000000
  0.056927  0.056361  0.000000      2.000000
  0.071088  0.056432  0.000000      2.000000
  0.085249  0.056502  0.000000      2.000000
 -0.070522  0.055724  0.000000      2.000000
 -0.056361  0.055794  0.000000      2.000000
 -0.042200  0.055865  0.000000      2.000000
 -0.028039  0.055936  0.000000      2.000000
 -0.013878  0.056007  0.000000      2.000000
  0.000354  0.070097  0.000000      2.000000
  0.014515  0.070168  0.000000      2.000000
  0.028676  0.070239  0.000000      2.000000
  0.042837  0.070309  0.000000      2.000000
  0.056998  0.070380  0.000000      2.000000
  0.071159  0.070451  0.000000      2.000000
  0.085320  0.070522  0.000000      2.000000
 -0.070451  0.069743  0.000000      2.000000
 -0.056290  0.069814  0.000000      2.000000
 -0.042129  0.069885  0.000000      2.000000
 -0.027968  0.069955  0.000000      2.000000
 -0.013807  0.070026  0.000000      2.000000
  0.000425  0.084116  0.000000      1.000000
  0.014586  0.084187  0.000000      2.000000
  0.028747  0.084258  0.000000      2.000000
  0.042908  0.084329  0.000000      2.000000
  0.057069  0.084400  0.000000      2.000000
  0.071230  0.084470  0.000000      2.000000
  0.085391  0.084541  0.000000      1.000000
  0.000000  0.000000  0.019655      2.000000
  0.014161  0.000071  0.019655      4.000000
  0.028322  0.000142  0.019655      4.000000
  0.042483  0.000212  0.019655      4.000000
  0.056644  0.000283  0.019655      4.000000
  0.070805  0.000354  0.019655      4.000000
  0.084966  0.000425  0.019655      2.000000
  0.000071  0.014019  0.019655      4.000000
  0.014232  0.014090  0.019655      4.000000
  0.028393  0.014161  0.019655      4.000000
  0.042554  0.014232  0.019655      4.000000
  0.056715  0.014303  0.019655      4.000000
  0.070876  0.014373  0.019655      4.000000
  0.085037  0.014444  0.019655      4.000000
 -0.070734  0.013665  0.019655      4.000000
 -0.056573  0.013736  0.019655      4.000000
 -0.042412  0.013807  0.019655      4.000000
 -0.028251  0.013878  0.019655      4.000000
 -0.014090  0.013949  0.019655      4.000000
  0.000142  0.028039  0.019655      4.000000
  0.014303  0.028110  0.019655      4.000000
  0.028464  0.028180  0.019655      4.000000
  0.042625  0.028251  0.019655      4.000000
  0.056786  0.028322  0.019655      4.000000
  0.070947  0.028393  0.019655      4.000000
  0.085108  0.028464  0.019655      4.000000
 -0.070663  0.027685  0.019655      4.000000
 -0.056502  0.027756  0.019655      4.000000
 -0.042341  0.027826  0.019655      4.000000
 -0.028180  0.027897  0.019655      4.000000
 -0.014019  0.027968  0.019655      4.000000
  0.000212  0.042058  0.019655      4.000000
  0.014373  0.042129  0.019655      4.000000
  0.028534  0.042200  0.019655      4.000000
  0.042695  0.042271  0.019655      4.000000
  0.056856  0.042341  0.019655      4.000000
  0.071017  0.042412  0.019655      4.000000
  0.085178  0.042483  0.019655      4.000000
 -0.070593  0.041704  0.019655      4.000000
 -0.056432  0.041775  0.019655      4.000000
 -0.042271  0.041846  0.019655      4.000000
 -0.028110  0.041917  0.019655      4.000000
 -0.013949  0.041987  0.019655      4.000000
  0.000283  0.056078  0.019655      4.000000
  0.014444  0.056148  0.019655      4.000000
  0.028605  0.056219  0.019655      4.000000
  0.042766  0.056290  0.019655      4.000000
  0.056927  0.056361  0.019655      4.000000
  0.071088  0.056432  0.019655      4.000000
  0.085249  0.056502  0.019655      4.000000
 -0.070522  0.055724  0.019655      4.000000
 -0.056361  0.055794  0.019655      4.000000
 -0.042200  0.055865  0.019655      4.000000
 -0.028039  0.055936  0.019655      4.000000
 -0.013878  0.056007  0.019655      4.000000
  0.000354  0.070097  0.019655      4.000000
  0.014515  0.070168  0.019655      4.000000
  0.028676  0.070239  0.019655      4.000000
  0.042837  0.070309  0.019655      4.000000
  0.056998  0.070380  0.019655      4.000000
  0.071159  0.070451  0.019655      4.000000
  0.085320  0.070522  0.019655      4.000000
 -0.070451  0.069743  0.019655      4.000000
 -0.056290  0.069814  0.019655      4.000000
 -0.042129  0.069885  0.019655      4.000000
 -0.027968  0.069955  0.019655      4.000000
 -0.013807  0.070026  0.019655      4.000000
  0.000425  0.084116  0.019655      2.000000
  0.014586  0.084187  0.019655      4.000000
  0.028747  0.084258  0.019655      4.000000
  0.042908  0.084329  0.019655      4.000000
  0.057069  0.084400  0.019655      4.000000
  0.071230  0.084470  0.019655      4.000000
  0.085391  0.084541  0.019655      2.000000
  0.000000  0.000000  0.039309      2.000000
  0.014161  0.000071  0.039309      4.000000
  0.028322  0.000142  0.039309      4.000000
  0.042483  0.000212  0.039309      4.000000
  0.056644  0.000283  0.039309      4.000000
  0.070805  0.000354  0.039309      4.000000
  0.084966  0.000425  0.039309      2.000000
  0.000071  0.014019  0.039309      4.000000
  0.014232  0.014090  0.039309      4.000000
  0.028393  0.014161  0.039309      4.000000
  0.042554  0.014232  0.039309      4.000000
  0.056715  0.014303  0.039309      4.000000
  0.070876  0.014373  0.039309      4.000000
  0.085037  0.014444  0.039309      4.000000
 -0.070734  0.013665  0.039309      4.000000
 -0.056573  0.013736  0.039309      4.000000
 -0.042412  0.013807  0.039309      4.000000
 -0.028251  0.013878  0.039309      4.000000
 -0.014090  0.013949  0.039309      4.000000
  0.000142  0.028039  0.039309      4.000000
  0.014303  0.028110  0.039309      4.000000
  0.028464  0.028180  0.039309      4.000000
  0.042625  0.028251  0.039309      4.000000
  0.056786  0.028322  0.039309      4.000000
  0.070947  0.028393  0.039309      4.000000
  0.085108  0.028464  0.039309      4.000000
 -0.070663  0.027685  0.039309      4.000000
 -0.056502  0.027756  0.039309      4.000000
 -0.042341  0.027826  0.039309      4.000000
 -0.028180  0.027897  0.039309      4.000000
 -0.014019  0.027968  0.039309      4.000000
  0.000212  0.042058  0.039309      4.000000
  0.014373  0.042129  0.039309      4.000000
  0.028534  0.042200  0.039309      4.000000
  0.042695  0.042271  0.039309      4.000000
  0.056856  0.042341  0.039309      4.000000
  0.071017  0.042412  0.039309      4.000000
  0.085178  0.042483  0.039309      4.000000
 -0.070593  0.041704  0.039309      4.000000
 -0.056432  0.041775  0.039309      4.000000
 -0.042271  0.041846  0.039309      4.000000
 -0.028110  0.041917  0.039309      4.000000
 -0.013949  0.041987  0.039309      4.000000
  0.000283  0.056078  0.039309      4.000000
  0.014444  0.056148  0.039309      4.000000
  0.028605  0.056219  0.039309      4.000000
  0.042766  0.056290  0.039309      4.000000
  0.056927  0.056361  0.039309      4.000000
  0.071088  0.056432  0.039309      4.000000
  0.085249  0.056502  0.039309      4.000000
 -0.070522  0.055724  0.039309      4.000000
 -0.056361  0.055794  0.039309      4.000000
 -0.042200  0.055865  0.039309      4.000000
 -0.028039  0.055936  0.039309      4.000000
 -0.013878  0.056007  0.039309      4.000000
  0.000354  0.070097  0.039309      4.000000
  0.014515  0.070168  0.039309      4.000000
  0.028676  0.070239  0.039309      4.000000
  0.042837  0.070309  0.039309      4.000000
  0.056998  0.070380  0.039309      4.000000
  0.071159  0.070451  0.039309      4.000000
  0.085320  0.070522  0.039309      4.000000
 -0.070451  0.069743  0.039309      4.000000
 -0.056290  0.069814  0.039309      4.000000
 -0.042129  0.069885  0.039309      4.000000
 -0.027968  0.069955  0.039309      4.000000
 -0.013807  0.070026  0.039309      4.000000
  0.000425  0.084116  0.039309      2.000000
  0.014586  0.084187  0.039309      4.000000
  0.028747  0.084258  0.039309      4.000000
  0.042908  0.084329  0.039309      4.000000
  0.057069  0.084400  0.039309      4.000000
  0.071230  0.084470  0.039309      4.000000
  0.085391  0.084541  0.039309      2.000000
  0.000000  0.000000  0.058964      2.000000
  0.014161  0.000071  0.058964      4.000000
  0.028322  0.000142  0.058964      4.000000
  0.042483  0.000212  0.058964      4.000000
  0.056644  0.000283  0.058964      4.000000
  0.070805  0.000354  0.058964      4.000000
  0.084966  0.000425  0.058964      2.000000
  0.000071  0.014019  0.058964      4.000000
  0.014232  0.014090  0.058964      4.000000
  0.028393  0.014161  0.058964      4.000000
  0.042554  0.014232  0.058964      4.000000
  0.056715  0.014303  0.058964      4.000000
  0.070876  0.014373  0.058964      4.000000
  0.085037  0.014444  0.058964      4.000000
 -0.070734  0.013665  0.058964      4.000000
 -0.056573  0.013736  0.058964      4.000000
 -0.042412  0.013807  0.058964      4.000000
 -0.028251  0.013878  0.058964      4.000000
 -0.014090  0.013949  0.058964      4.000000
  0.000142  0.028039  0.058964      4.000000
  0.014303  0.028110  0.058964      4.000000
  0.028464  0.028180  0.058964      4.000000
  0.042625  0.028251  0.058964      4.000000
  0.056786  0.028322  0.058964      4.000000
  0.070947  0.028393  0.058964      4.000000
  0.085108  0.028464  0.058964      4.000000
 -0.070663  0.027685  0.058964      4.000000
 -0.056502  0.027756  0.058964      4.000000
 -0.042341  0.027826  0.058964      4.000000
 -0.028180  0.027897  0.058964      4.000000
 -0.014019  0.027968  0.058964      4.000000
  0.000212  0.042058  0.058964      4.000000
  0.014373  0.042129  0.058964      4.000000
  0.028534  0.042200  0.058964      4.000000
  0.042695  0.042271  0.058964      4.000000
  0.056856  0.042341  0.058964      4.000000
  0.071017  0.042412  0.058964      4.000000
  0.085178  0.042483  0.058964      4.000000
 -0.070593  0.041704  0.058964      4.000000
 -0.056432  0.041775  0.058964      4.000000
 -0.042271  0.041846  0.058964      4.000000
 -0.028110  0.041917  0.058964      4.000000
 -0.013949  0.041987  0.058964      4.000000
  0.000283  0.056078  0.058964      4.000000
  0.014444  0.056148  0.058964      4.000000
  0.028605  0.056219  0.058964      4.000000
  0.042766  0.056290  0.058964      4.000000
  0.056927  0.056361  0.058964      4.000000
  0.071088  0.056432  0.058964      4.000000
  0.085249  0.056502  0.058964      4.000000
 -0.070522  0.055724  0.058964      4.000000
 -0.056361  0.055794  0.058964      4.000000
 -0.042200  0.055865  0.058964      4.000000
 -0.028039  0.055936  0.058964      4.000000
 -0.013878  0.056007  0.058964      4.000000
  0.000354  0.070097  0.058964      4.000000
  0.014515  0.070168  0.058964      4.000000
  0.028676  0.070239  0.058964      4.000000
  0.042837  0.070309  0.058964      4.000000
  0.056998  0.070380  0.058964      4.000000
  0.071159  0.070451  0.058964      4.000000
  0.085320  0.070522  0.058964      4.000000
 -0.070451  0.069743  0.058964      4.000000
 -0.056290  0.069814  0.058964      4.000000
 -0.042129  0.069885  0.058964      4.000000
 -0.027968  0.069955  0.058964      4.000000
 -0.013807  0.070026  0.058964      4.000000
  0.000425  0.084116  0.058964      2.000000
  0.014586  0.084187  0.058964      4.000000
  0.028747  0.084258  0.058964      4.000000
  0.042908  0.084329  0.058964      4.000000
  0.057069  0.084400  0.058964      4.000000
  0.071230  0.084470  0.058964      4.000000
  0.085391  0.084541  0.058964      2.000000
  0.000000  0.000000  0.078618      2.000000
  0.014161  0.000071  0.078618      4.000000
  0.028322  0.000142  0.078618      4.000000
  0.042483  0.000212  0.078618      4.000000
  0.056644  0.000283  0.078618      4.000000
  0.070805  0.000354  0.078618      4.000000
  0.084966  0.000425  0.078618      2.000000
  0.000071  0.014019  0.078618      4.000000
  0.014232  0.014090  0.078618      4.000000
  0.028393  0.014161  0.078618      4.000000
  0.042554  0.014232  0.078618      4.000000
  0.056715  0.014303  0.078618      4.000000
  0.070876  0.014373  0.078618      4.000000
  0.085037  0.014444  0.078618      4.000000
 -0.070734  0.013665  0.078618      4.000000
 -0.056573  0.013736  0.078618      4.000000
 -0.042412  0.013807  0.078618      4.000000
 -0.028251  0.013878  0.078618      4.000000
 -0.014090  0.013949  0.078618      4.000000
  0.000142  0.028039  0.078618      4.000000
  0.014303  0.028110  0.078618      4.000000
  0.028464  0.028180  0.078618      4.000000
  0.042625  0.028251  0.078618      4.000000
  0.056786  0.028322  0.078618      4.000000
  0.070947  0.028393  0.078618      4.000000
  0.085108  0.028464  0.078618      4.000000
 -0.070663  0.027685  0.078618      4.000000
 -0.056502  0.027756  0.078618      4.000000
 -0.042341  0.027826  0.078618      4.000000
 -0.028180  0.027897  0.078618      4.000000
 -0.014019  0.027968  0.078618      4.000000
  0.000212  0.042058  0.078618      4.000000
  0.014373  0.042129  0.078618      4.000000
  0.028534  0.042200  0.078618      4.000000
  0.042695  0.042271  0.078618      4.000000
  0.056856  0.042341  0.078618      4.000000
  0.071017  0.042412  0.078618      4.000000
  0.085178  0.042483  0.078618      4.000000
 -0.070593  0.041704  0.078618      4.000000
 -0.056432  0.041775  0.078618      4.000000
 -0.042271  0.041846  0.078618      4.000000
 -0.028110  0.041917  0.078618      4.000000
 -0.013949  0.041987  0.078618      4.000000
  0.000283  0.056078  0.078618      4.000000
  0.014444  0.056148  0.078618      4.000000
  0.028605  0.056219  0.078618      4.000000
  0.042766  0.056290  0.078618      4.000000
  0.056927  0.056361  0.078618      4.000000
  0.071088  0.056432  0.078618      4.000000
  0.085249  0.056502  0.078618      4.000000
 -0.070522  0.055724  0.078618      4.000000
 -0.056361  0.055794  0.078618      4.000000
 -0.042200  0.055865  0.078618      4.000000
 -0.028039  0.055936  0.078618      4.000000
 -0.013878  0.056007  0.078618      4.000000
  0.000354  0.070097  0.078618      4.000000
  0.014515  0.070168  0.078618      4.000000
  0.028676  0.070239  0.078618      4.000000
  0.042837  0.070309  0.078618      4.000000
  0.056998  0.070380  0.078618      4.000000
  0.071159  0.070451  0.078618      4.000000
  0.085320  0.070522  0.078618      4.000000
 -0.070451  0.069743  0.078618      4.000000
 -0.056290  0.069814  0.078618      4.000000
 -0.042129  0.069885  0.078618      4.000000
 -0.027968  0.069955  0.078618      4.000000
 -0.013807  0.070026  0.078618      4.000000
  0.000425  0.084116  0.078618      2.000000
  0.014586  0.084187  0.078618      4.000000
  0.028747  0.084258  0.078618      4.000000
  0.042908  0.084329  0.078618      4.000000
  0.057069  0.084400  0.078618      4.000000
  0.071230  0.084470  0.078618      4.000000
  0.085391  0.084541  0.078618      2.000000
  0.000000  0.000000  0.098273      2.000000
  0.014161  0.000071  0.098273      4.000000
  0.028322  0.000142  0.098273      4.000000
  0.042483  0.000212  0.098273      4.000000
  0.056644  0.000283  0.098273      4.000000
  0.070805  0.000354  0.098273      4.000000
  0.084966  0.000425  0.098273      2.000000
  0.000071  0.014019  0.098273      4.000000
  0.014232  0.014090  0.098273      4.000000
  0.028393  0.014161  0.098273      4.000000
  0.042554  0.014232  0.098273      4.000000
  0.056715  0.014303  0.098273      4.000000
  0.070876  0.014373  0.098273      4.000000
  0.085037  0.014444  0.098273      4.000000
 -0.070734  0.013665  0.098273      4.000000
 -0.056573  0.013736  0.098273      4.000000
 -0.042412  0.013807  0.098273      4.000000
 -0.028251  0.013878  0.098273      4.000000
 -0.014090  0.013949  0.098273      4.000000
  0.000142  0.028039  0.098273      4.000000
  0.014303  0.028110  0.098273      4.000000
  0.028464  0.028180  0.098273      4.000000
  0.042625  0.028251  0.098273      4.000000
  0.056786  0.028322  0.098273      4.000000
  0.070947  0.028393  0.098273      4.000000
  0.085108  0.028464  0.098273      4.000000
 -0.070663  0.027685  0.098273      4.000000
 -0.056502  0.027756  0.098273      4.000000
 -0.042341  0.027826  0.098273      4.000000
 -0.028180  0.027897  0.098273      4.000000
 -0.014019  0.027968  0.098273      4.000000
  0.000212  0.042058  0.098273      4.000000
  0.014373  0.042129  0.098273      4.000000
  0.028534  0.042200  0.098273      4.000000
  0.042695  0.042271  0.098273      4.000000
  0.056856  0.042341  0.098273      4.000000
  0.071017  0.042412  0.098273      4.000000
  0.085178  0.042483  0.098273      4.000000
 -0.070593  0.041704  0.098273      4.000000
 -0.056432  0.041775  0.098273      4.000000
 -0.042271  0.041846  0.098273      4.000000
 -0.028110  0.041917  0.098273      4.000000
 -0.013949  0.041987  0.098273      4.000000
  0.000283  0.056078  0.098273      4.000000
  0.014444  0.056148  0.098273      4.000000
  0.028605  0.056219  0.098273      4.000000
  0.042766  0.056290  0.098273      4.000000
  0.056927  0.056361  0.098273      4.000000
  0.071088  0.056432  0.098273      4.000000
  0.085249  0.056502  0.098273      4.000000
 -0.070522  0.055724  0.098273      4.000000
 -0.056361  0.055794  0.098273      4.000000
 -0.042200  0.055865  0.098273      4.000000
 -0.028039  0.055936  0.098273      4.000000
 -0.013878  0.056007  0.098273      4.000000
  0.000354  0.070097  0.098273      4.000000
  0.014515  0.070168  0.098273      4.000000
  0.028676  0.070239  0.098273      4.000000
  0.042837  0.070309  0.098273      4.000000
  0.056998  0.070380  0.098273      4.000000
  0.071159  0.070451  0.098273      4.000000
  0.085320  0.070522  0.098273      4.000000
 -0.070451  0.069743  0.098273      4.000000
 -0.056290  0.069814  0.098273      4.000000
 -0.042129  0.069885  0.098273      4.000000
 -0.027968  0.069955  0.098273      4.000000
 -0.013807  0.070026  0.098273      4.000000
  0.000425  0.084116  0.098273      2.000000
  0.014586  0.084187  0.098273      4.000000
  0.028747  0.084258  0.098273      4.000000
  0.042908  0.084329  0.098273      4.000000
  0.057069  0.084400  0.098273      4.000000
  0.071230  0.084470  0.098273      4.000000
  0.085391  0.084541  0.098273      2.000000
  0.000000  0.000000  0.117927      2.000000
  0.014161  0.000071  0.117927      4.000000
  0.028322  0.000142  0.117927      4.000000
  0.042483  0.000212  0.117927      4.000000
  0.056644  0.000283  0.117927      4.000000
  0.070805  0.000354  0.117927      4.000000
  0.084966  0.000425  0.117927      2.000000
  0.000071  0.014019  0.117927      4.000000
  0.014232  0.014090  0.117927      4.000000
  0.028393  0.014161  0.117927      4.000000
  0.042554  0.014232  0.117927      4.000000
  0.056715  0.014303  0.117927      4.000000
  0.070876  0.014373  0.117927      4.000000
  0.085037  0.014444  0.117927      4.000000
 -0.070734  0.013665  0.117927      4.000000
 -0.056573  0.013736  0.117927      4.000000
 -0.042412  0.013807  0.117927      4.000000
 -0.028251  0.013878  0.117927      4.000000
 -0.014090  0.013949  0.117927      4.000000
  0.000142  0.028039  0.117927      4.000000
  0.014303  0.028110  0.117927      4.000000
  0.028464  0.028180  0.117927      4.000000
  0.042625  0.028251  0.117927      4.000000
  0.056786  0.028322  0.117927      4.000000
  0.070947  0.028393  0.117927      4.000000
  0.085108  0.028464  0.117927      4.000000
 -0.070663  0.027685  0.117927      4.000000
 -0.056502  0.027756  0.117927      4.000000
 -0.042341  0.027826  0.117927      4.000000
 -0.028180  0.027897  0.117927      4.000000
 -0.014019  0.027968  0.117927      4.000000
  0.000212  0.042058  0.117927      4.000000
  0.014373  0.042129  0.117927      4.000000
  0.028534  0.042200  0.117927      4.000000
  0.042695  0.042271  0.117927      4.000000
  0.056856  0.042341  0.117927      4.000000
  0.071017  0.042412  0.117927      4.000000
  0.085178  0.042483  0.117927      4.000000
 -0.070593  0.041704  0.117927      4.000000
 -0.056432  0.041775  0.117927      4.000000
 -0.042271  0.041846  0.117927      4.000000
 -0.028110  0.041917  0.117927      4.000000
 -0.013949  0.041987  0.117927      4.000000
  0.000283  0.056078  0.117927      4.000000
  0.014444  0.056148  0.117927      4.000000
  0.028605  0.056219  0.117927      4.000000
  0.042766  0.056290  0.117927      4.000000
  0.056927  0.056361  0.117927      4.000000
  0.071088  0.056432  0.117927      4.000000
  0.085249  0.056502  0.117927      4.000000
 -0.070522  0.055724  0.117927      4.000000
 -0.056361  0.055794  0.117927      4.000000
 -0.042200  0.055865  0.117927      4.000000
 -0.028039  0.055936  0.117927      4.000000
 -0.013878  0.056007  0.117927      4.000000
  0.000354  0.070097  0.117927      4.000000
  0.014515  0.070168  0.117927      4.000000
  0.028676  0.070239  0.117927      4.000000
  0.042837  0.070309  0.117927      4.000000
  0.056998  0.070380  0.117927      4.000000
  0.071159  0.070451  0.117927      4.000000
  0.085320  0.070522  0.117927      4.000000
 -0.070451  0.069743  0.117927      4.000000
 -0.056290  0.069814  0.117927      4.000000
 -0.042129  0.069885  0.117927      4.000000
 -0.027968  0.069955  0.117927      4.000000
 -0.013807  0.070026  0.117927      4.000000
  0.000425  0.084116  0.117927      2.000000
  0.014586  0.084187  0.117927      4.000000
  0.028747  0.084258  0.117927      4.000000
  0.042908  0.084329  0.117927      4.000000
  0.057069  0.084400  0.117927      4.000000
  0.071230  0.084470  0.117927      4.000000
  0.085391  0.084541  0.117927      2.000000
  0.000000  0.000000  0.137582      2.000000
  0.014161  0.000071  0.137582      4.000000
  0.028322  0.000142  0.137582      4.000000
  0.042483  0.000212  0.137582      4.000000
  0.056644  0.000283  0.137582      4.000000
  0.070805  0.000354  0.137582      4.000000
  0.084966  0.000425  0.137582      2.000000
  0.000071  0.014019  0.137582      4.000000
  0.014232  0.014090  0.137582      4.000000
  0.028393  0.014161  0.137582      4.000000
  0.042554  0.014232  0.137582      4.000000
  0.056715  0.014303  0.137582      4.000000
  0.070876  0.014373  0.137582      4.000000
  0.085037  0.014444  0.137582      4.000000
 -0.070734  0.013665  0.137582      4.000000
 -0.056573  0.013736  0.137582      4.000000
 -0.042412  0.013807  0.137582      4.000000
 -0.028251  0.013878  0.137582      4.000000
 -0.014090  0.013949  0.137582      4.000000
  0.000142  0.028039  0.137582      4.000000
  0.014303  0.028110  0.137582      4.000000
  0.028464  0.028180  0.137582      4.000000
  0.042625  0.028251  0.137582      4.000000
  0.056786  0.028322  0.137582      4.000000
  0.070947  0.028393  0.137582      4.000000
  0.085108  0.028464  0.137582      4.000000
 -0.070663  0.027685  0.137582      4.000000
 -0.056502  0.027756  0.137582      4.000000
 -0.042341  0.027826  0.137582      4.000000
 -0.028180  0.027897  0.137582      4.000000
 -0.014019  0.027968  0.137582      4.000000
  0.000212  0.042058  0.137582      4.000000
  0.014373  0.042129  0.137582      4.000000
  0.028534  0.042200  0.137582      4.000000
  0.042695  0.042271  0.137582      4.000000
  0.056856  0.042341  0.137582      4.000000
  0.071017  0.042412  0.137582      4.000000
  0.085178  0.042483  0.137582      4.000000
 -0.070593  0.041704  0.137582      4.000000
 -0.056432  0.041775  0.137582      4.000000
 -0.042271  0.041846  0.137582      4.000000
 -0.028110  0.041917  0.137582      4.000000
 -0.013949  0.041987  0.137582      4.000000
  0.000283  0.056078  0.137582      4.000000
  0.014444  0.056148  0.137582      4.000000
  0.028605  0.056219  0.137582      4.000000
  0.042766  0.056290  0.137582      4.000000
  0.056927  0.056361  0.137582      4.000000
  0.071088  0.056432  0.137582      4.000000
  0.085249  0.056502  0.137582      4.000000
 -0.070522  0.055724  0.137582      4.000000
 -0.056361  0.055794  0.137582      4.000000
 -0.042200  0.055865  0.137582      4.000000
 -0.028039  0.055936  0.137582      4.000000
 -0.013878  0.056007  0.137582      4.000000
  0.000354  0.070097  0.137582      4.000000
  0.014515  0.070168  0.137582      4.000000
  0.028676  0.070239  0.137582      4.000000
  0.042837  0.070309  0.137582      4.000000
  0.056998  0.070380  0.137582      4.000000
  0.071159  0.070451  0.137582      4.000000
  0.085320  0.070522  0.137582      4.000000
 -0.070451  0.069743  0.137582      4.000000
 -0.056290  0.069814  0.137582      4.000000
 -0.042129  0.069885  0.137582      4.000000
 -0.027968  0.069955  0.137582      4.000000
 -0.013807  0.070026  0.137582      4.000000
  0.000425  0.084116  0.137582      2.000000
  0.014586  0.084187  0.137582      4.000000
  0.028747  0.084258  0.137582      4.000000
  0.042908  0.084329  0.137582      4.000000
  0.057069  0.084400  0.137582      4.000000
  0.071230  0.084470  0.137582      4.000000
  0.085391  0.084541  0.137582      2.000000
  0.000000  0.000000  0.157236      1.000000
  0.014161  0.000071  0.157236      2.000000
  0.028322  0.000142  0.157236      2.000000
  0.042483  0.000212  0.157236      2.000000
  0.056644  0.000283  0.157236      2.000000
  0.070805  0.000354  0.157236      2.000000
  0.084966  0.000425  0.157236      1.000000
  0.000071  0.014019  0.157236      2.000000
  0.014232  0.014090  0.157236      2.000000
  0.028393  0.014161  0.157236      2.000000
  0.042554  0.014232  0.157236      2.000000
  0.056715  0.014303  0.157236      2.000000
  0.070876  0.014373  0.157236      2.000000
  0.085037  0.014444  0.157236      2.000000
 -0.070734  0.013665  0.157236      2.000000
 -0.056573  0.013736  0.157236      2.000000
 -0.042412  0.013807  0.157236      2.000000
 -0.028251  0.013878  0.157236      2.000000
 -0.014090  0.013949  0.157236      2.000000
  0.000142  0.028039  0.157236      2.000000
  0.014303  0.028110  0.157236      2.000000
  0.028464  0.028180  0.157236      2.000000
  0.042625  0.028251  0.157236      2.000000
  0.056786  0.028322  0.157236      2.000000
  0.070947  0.028393  0.157236      2.000000
  0.085108  0.028464  0.157236      2.000000
 -0.070663  0.027685  0.157236      2.000000
 -0.056502  0.027756  0.157236      2.000000
 -0.042341  0.027826  0.157236      2.000000
 -0.028180  0.027897  0.157236      2.000000
 -0.014019  0.027968  0.157236      2.000000
  0.000212  0.042058  0.157236      2.000000
  0.014373  0.042129  0.157236      2.000000
  0.028534  0.042200  0.157236      2.000000
  0.042695  0.042271  0.157236      2.000000
  0.056856  0.042341  0.157236      2.000000
  0.071017  0.042412  0.157236      2.000000
  0.085178  0.042483  0.157236      2.000000
 -0.070593  0.041704  0.157236      2.000000
 -0.056432  0.041775  0.157236      2.000000
 -0.042271  0.041846  0.157236      2.000000
 -0.028110  0.041917  0.157236      2.000000
 -0.013949  0.041987  0.157236      2.000000
  0.000283  0.056078  0.157236      2.000000
  0.014444  0.056148  0.157236      2.000000
  0.028605  0.056219  0.157236      2.000000
  0.042766  0.056290  0.157236      2.000000
  0.056927  0.056361  0.157236      2.000000
  0.071088  0.056432  0.157236      2.000000
  0.085249  0.056502  0.157236      2.000000
 -0.070522  0.055724  0.157236      2.000000
 -0.056361  0.055794  0.157236      2.000000
 -0.042200  0.055865  0.157236      2.000000
 -0.028039  0.055936  0.157236      2.000000
 -0.013878  0.056007  0.157236      2.000000
  0.000354  0.070097  0.157236      2.000000
  0.014515  0.070168  0.157236      2.000000
  0.028676  0.070239  0.157236      2.000000
  0.042837  0.070309  0.157236      2.000000
  0.056998  0.070380  0.157236      2.000000
  0.071159  0.070451  0.157236      2.000000
  0.085320  0.070522  0.157236      2.000000
 -0.070451  0.069743  0.157236      2.000000
 -0.056290  0.069814  0.157236      2.000000
 -0.042129  0.069885  0.157236      2.000000
 -0.027968  0.069955  0.157236      2.000000
 -0.013807  0.070026  0.157236      2.000000
  0.000425  0.084116  0.157236      1.000000
  0.014586  0.084187  0.157236      2.000000
  0.028747  0.084258  0.157236      2.000000
  0.042908  0.084329  0.157236      2.000000
  0.057069  0.084400  0.157236      2.000000
  0.071230  0.084470  0.157236      2.000000
  0.085391  0.084541  0.157236      1.000000
 


--------------------------------------------------------------------------------------------------------




 Dimension of arrays:
   k-points           NKPTS =    666   k-points in BZ     NKDIM =    666   number of bands    NBANDS=     12
   number of dos      NEDOS =    301   number of ions     NIONS =      4
   non local maximal  LDIM  =      5   non local SUM 2l+1 LMDIM =     13
   total plane-waves  NPLWV =  10976
   max r-space proj   IRMAX =      1   max aug-charges    IRDMAX=   9697
   dimension x,y,z NGX =    28 NGY =   28 NGZ =   14
   dimension x,y,z NGXF=    56 NGYF=   56 NGZF=   28
   support grid    NGXF=    56 NGYF=   56 NGZF=   28
   ions per type =               4
 NGX,Y,Z   is equivalent  to a cutoff of   7.91,  7.83,  7.32 a.u.
 NGXF,Y,Z  is equivalent  to a cutoff of  15.82, 15.66, 14.64 a.u.


 I would recommend the setting:
   dimension x,y,z NGX =    25 NGY =   25 NGZ =   13
 SYSTEM =  Sn                                      
 POSCAR =  Sn4                                     

 Startparameter for this run:
   NWRITE =      2    write-flag & timer
   PREC   = n         normal or accurate (medium, high low for compatibility)
   ISTART =      0    job   : 0-new  1-cont  2-samecut
   ICHARG =      2    charge: 1-file 2-atom 10-const
   ISPIN  =      1    spin polarized calculation?
   LNONCOLLINEAR =      F non collinear calculations
   LSORBIT =      F    spin-orbit coupling
   INIWAV =      1    electr: 0-lowe 1-rand  2-diag
   LASPH  =      F    aspherical Exc in radial PAW
   METAGGA=      F    non-selfconsistent MetaGGA calc.

 Electronic Relaxation 1
   ENCUT  =  300.0 eV  22.05 Ry    4.70 a.u.   8.31  8.40  4.49*2*pi/ulx,y,z
   ENINI  =  300.0     initial cutoff
   ENAUG  =  263.6 eV  augmentation charge cutoff
   NELM   =     40;   NELMIN=  4; NELMDL= -5     # of ELM steps 
   EDIFF  = 0.1E-05   stopping-criterion for ELM
   LREAL  =      F    real-space projection
   NLSPLINE    = F    spline interpolate recip. space projectors
   LCOMPAT=      F    compatible to vasp.4.4
   GGA_COMPAT  = T    GGA compatible to vasp.4.4-vasp.4.6
   LMAXPAW     = -100 max onsite density
   LMAXMIX     =    2 max onsite mixed and CHGCAR
   VOSKOWN=      0    Vosko Wilk Nusair interpolation
   ROPT   =    0.00000
 Ionic relaxation
   EDIFFG = -.1E-03   stopping-criterion for IOM
   NSW    =    100    number of steps for IOM
   NBLOCK =      1;   KBLOCK =    100    inner block; outer block 
   IBRION =      2    ionic relax: 0-MD 1-quasi-New 2-CG
   NFREE  =      1    steps in history (QN), initial steepest desc. (CG)
   ISIF   =      2    stress and relaxation
   IWAVPR =     11    prediction:  0-non 1-charg 2-wave 3-comb
   ISYM   =      2    0-nonsym 1-usesym 2-fastsym
   LCORR  =      T    Harris-Foulkes like correction to forces

   POTIM  = 0.3000    time-step for ionic-motion
   TEIN   =    0.0    initial temperature
   TEBEG  =    0.0;   TEEND  =   0.0 temperature during run
   SMASS  =  -3.00    Nose mass-parameter (am)
   estimated Nose-frequenzy (Omega)   =  0.10E-29 period in steps =****** mass=  -0.791E-27a.u.
   SCALEE = 1.0000    scale energy and forces
   NPACO  =    256;   APACO  = 16.0  distance and # of slots for P.C.
   PSTRESS=    0.0 pullay stress

  Mass of Ions in am
   POMASS = 118.71
  Ionic Valenz
   ZVAL   =   4.00
  Atomic Wigner-Seitz radii
   RWIGS  =  -1.00
  virtual crystal weights 
   VCA    =   1.00
   NELECT =      16.0000    total number of electrons
   NUPDOWN=      -1.0000    fix difference up-down

 DOS related values:
   EMIN   =  10.00;   EMAX   =-10.00  energy-range for DOS
   EFERMI =   0.00
   ISMEAR =    -1;   SIGMA  =   0.03  broadening in eV -4-tet -1-fermi 0-gaus

 Electronic relaxation 2 (details)
   IALGO  =     68    algorithm
   LDIAG  =      T    sub-space diagonalisation (order eigenvalues)
   LSUBROT=      F    optimize rotation matrix (better conditioning)
   TURBO    =      0    0=normal 1=particle mesh
   IRESTART =      0    0=no restart 2=restart with 2 vectors
   NREBOOT  =      0    no. of reboots
   NMIN     =      0    reboot dimension
   EREF     =   0.00    reference energy to select bands
   IMIX   =      4    mixing-type and parameters
     AMIX     =   0.40;   BMIX     =  1.00
     AMIX_MAG =   1.60;   BMIX_MAG =  1.00
     AMIN     =   0.10
     WC   =   100.;   INIMIX=   1;  MIXPRE=   1;  MAXMIX=  40

 Intra band minimization:
   WEIMIN = 0.0010     energy-eigenvalue tresh-hold
   EBREAK =  0.21E-07  absolut break condition
   DEPER  =   0.30     relativ break condition  

   TIME   =   0.40     timestep for ELM

  volume/ion in A,a.u.               =      27.81       187.66
  Fermi-wavevector in a.u.,A,eV,Ry     =   0.857763  1.620937 10.010586  0.735757
  Thomas-Fermi vector in A             =   1.974866

 Write flags
   LWAVE  =      F    write WAVECAR
   LCHARG =      F    write CHGCAR
   LVTOT  =      F    write LOCPOT, total local potential
   LVHAR  =      F    write LOCPOT, Hartree potential only
   LELF   =      F    write electronic localiz. function (ELF)
   LORBIT =      0    0 simple, 1 ext, 2 COOP (PROOUT)


 Dipole corrections
   LMONO  =      F    monopole corrections only (constant potential shift)
   LDIPOL =      F    correct potential (dipole corrections)
   IDIPOL =      0    1-x, 2-y, 3-z, 4-all directions 
   EPSILON=  1.0000000 bulk dielectric constant

 Exchange correlation treatment:
   GGA     =    91    GGA type
   LEXCH   =     7    internal setting for exchange type
   VOSKOWN=      0    Vosko Wilk Nusair interpolation
   LHFCALC =     F    Hartree Fock is set to
   LHFONE  =     F    Hartree Fock one center treatment
   AEXX    =    0.0000 exact exchange contribution

 Linear response parameters
   LEPSILON=     F    determine dielectric tensor
   LRPA    =     F    only Hartree local field effects (RPA)
   LNABLA  =     F    use nabla operator in PAW spheres
   LVEL    =     F    velocity operator in full k-point grid
   LINTERFAST=   F  fast interpolation
   KINTER  =     0    interpolate to denser k-point grid
   CSHIFT  =0.1000    complex shift for real part using Kramers Kronig
   OMEGAMAX=  -1.0    maximum frequency
   DEG_THRESHOLD= 0.2000000E-02 threshold for treating states as degnerate
   RTIME   =    0.100 relaxation time in fs

 Orbital magnetization related:
   ORBITALMAG=     F  switch on orbital magnetization
   LCHIMAG   =     F  perturbation theory with respect to B field
   DQ        =  0.001000  dq finite difference perturbation B field



--------------------------------------------------------------------------------------------------------


 conjugate gradient relaxation of ions
 charge density and potential will be updated during run
 non-spin polarized calculation
 RMM-DIIS sequential band-by-band and
  variant of blocked Davidson during initial phase
 perform sub-space diagonalisation
    before iterative eigenvector-optimisation
 modified Broyden-mixing scheme, WC =      100.0
 initial mixing is a Kerker type mixing with AMIX =  0.4000 and BMIX =      1.0000
 Hartree-type preconditioning will be used
 using additional bands            4
 reciprocal scheme for non local part
 use partial core corrections
 calculate Harris-corrections to forces   (improved forces if not selfconsistent)
 use gradient corrections 
 use of overlap-Matrix (Vanderbilt PP)
 Fermi-smearing in eV        SIGMA  =   0.03


--------------------------------------------------------------------------------------------------------


  energy-cutoff  :      300.00
  volume of cell :      111.24
      direct lattice vectors                 reciprocal lattice vectors
     5.884854169 -0.029721486  0.000000000     0.169932036  0.000849660 -0.000000000
    -0.029721486  5.944297140  0.000000000     0.000849660  0.168232716 -0.000000000
     0.000000000  0.000000000  3.179928430    -0.000000000 -0.000000000  0.314472486

  length of vectors
     5.884929223  5.944371444  3.179928430     0.169934161  0.168234862  0.314472486



 k-points in units of 2pi/SCALE and weight: Automatic                               
   0.00000000  0.00000000  0.00000000       0.000
   0.01416100  0.00007081  0.00000000       0.001
   0.02832201  0.00014161  0.00000000       0.001
   0.04248301  0.00021242  0.00000000       0.001
   0.05664401  0.00028322  0.00000000       0.001
   0.07080502  0.00035403  0.00000000       0.001
   0.08496602  0.00042483  0.00000000       0.000
   0.00007081  0.01401939  0.00000000       0.001
   0.01423181  0.01409020  0.00000000       0.001
   0.02839281  0.01416100  0.00000000       0.001
   0.04255381  0.01423181  0.00000000       0.001
   0.05671482  0.01430261  0.00000000       0.001
   0.07087582  0.01437342  0.00000000       0.001
   0.08503682  0.01444422  0.00000000       0.001
  -0.07073421  0.01366537  0.00000000       0.001
  -0.05657321  0.01373617  0.00000000       0.001
  -0.04241220  0.01380698  0.00000000       0.001
  -0.02825120  0.01387778  0.00000000       0.001
  -0.01409020  0.01394859  0.00000000       0.001
   0.00014161  0.02803879  0.00000000       0.001
   0.01430261  0.02810959  0.00000000       0.001
   0.02846362  0.02818040  0.00000000       0.001
   0.04262462  0.02825120  0.00000000       0.001
   0.05678562  0.02832201  0.00000000       0.001
   0.07094663  0.02839281  0.00000000       0.001
   0.08510763  0.02846362  0.00000000       0.001
  -0.07066341  0.02768476  0.00000000       0.001
  -0.05650240  0.02775557  0.00000000       0.001
  -0.04234140  0.02782637  0.00000000       0.001
  -0.02818040  0.02789718  0.00000000       0.001
  -0.01401939  0.02796798  0.00000000       0.001
   0.00021242  0.04205818  0.00000000       0.001
   0.01437342  0.04212898  0.00000000       0.001
   0.02853442  0.04219979  0.00000000       0.001
   0.04269542  0.04227059  0.00000000       0.001
   0.05685643  0.04234140  0.00000000       0.001
   0.07101743  0.04241220  0.00000000       0.001
   0.08517843  0.04248301  0.00000000       0.001
  -0.07059260  0.04170415  0.00000000       0.001
  -0.05643160  0.04177496  0.00000000       0.001
  -0.04227059  0.04184576  0.00000000       0.001
  -0.02810959  0.04191657  0.00000000       0.001
  -0.01394859  0.04198737  0.00000000       0.001
   0.00028322  0.05607757  0.00000000       0.001
   0.01444422  0.05614838  0.00000000       0.001
   0.02860523  0.05621918  0.00000000       0.001
   0.04276623  0.05628999  0.00000000       0.001
   0.05692723  0.05636079  0.00000000       0.001
   0.07108824  0.05643160  0.00000000       0.001
   0.08524924  0.05650240  0.00000000       0.001
  -0.07052180  0.05572355  0.00000000       0.001
  -0.05636079  0.05579435  0.00000000       0.001
  -0.04219979  0.05586516  0.00000000       0.001
  -0.02803879  0.05593596  0.00000000       0.001
  -0.01387778  0.05600677  0.00000000       0.001
   0.00035403  0.07009697  0.00000000       0.001
[...]
      6       1.2954      2.00000
      7       2.5885      2.00000
      8       2.5885      2.00000
      9       6.5358      0.00000
     10       6.5358      0.00000
     11       6.8967      0.00000
     12       6.8967      0.00000

 k-point   645 :      -0.2500    0.3333    0.5000
  band No.  band energies     occupation 
      1      -1.7604      2.00000
      2      -1.7604      2.00000
      3       0.0351      2.00000
      4       0.0351      2.00000
      5       1.4521      2.00000
      6       1.4521      2.00000
      7       2.9494      2.00000
      8       2.9494      2.00000
      9       5.8785      0.00000
     10       5.8785      0.00000
     11       6.5820      0.00000
     12       6.5820      0.00000

 k-point   646 :      -0.1667    0.3333    0.5000
  band No.  band energies     occupation 
      1      -1.8821      2.00000
      2      -1.8821      2.00000
      3       0.0693      2.00000
      4       0.0693      2.00000
      5       1.7933      2.00000
      6       1.7933      2.00000
      7       3.3167      2.00000
      8       3.3167      2.00000
      9       5.0668      0.07986
     10       5.0668      0.07986
     11       6.4999      0.00000
     12       6.4999      0.00000

 k-point   647 :      -0.0833    0.3333    0.5000
  band No.  band energies     occupation 
      1      -1.9580      2.00000
      2      -1.9580      2.00000
      3       0.0600      2.00000
      4       0.0600      2.00000
      5       2.2060      2.00000
      6       2.2060      2.00000
      7       3.6242      2.00000
      8       3.6242      2.00000
      9       4.3748      2.00000
     10       4.3748      2.00000
     11       6.4628      0.00000
     12       6.4628      0.00000

 k-point   648 :       0.0000    0.4167    0.5000
  band No.  band energies     occupation 
      1      -1.8522      2.00000
      2      -1.8522      2.00000
      3      -0.2392      2.00000
      4      -0.2392      2.00000
      5       2.6290      2.00000
      6       2.6290      2.00000
      7       3.5192      2.00000
      8       3.5192      2.00000
      9       4.0130      2.00000
     10       4.0130      2.00000
     11       7.2401      0.00000
     12       7.2401      0.00000

 k-point   649 :       0.0833    0.4167    0.5000
  band No.  band energies     occupation 
      1      -1.8243      2.00000
      2      -1.8243      2.00000
      3      -0.2327      2.00000
      4      -0.2327      2.00000
      5       2.3624      2.00000
      6       2.3624      2.00000
      7       3.3892      2.00000
      8       3.3892      2.00000
      9       4.3876      2.00000
     10       4.3876      2.00000
     11       7.2872      0.00000
     12       7.2872      0.00000

 k-point   650 :       0.1667    0.4167    0.5000
  band No.  band energies     occupation 
      1      -1.7429      2.00000
      2      -1.7429      2.00000
      3      -0.2209      2.00000
      4      -0.2209      2.00000
      5       1.9124      2.00000
      6       1.9124      2.00000
      7       3.0865      2.00000
      8       3.0865      2.00000
      9       5.1197      0.00998
     10       5.1197      0.00998
     11       7.3554      0.00000
     12       7.3554      0.00000

 k-point   651 :       0.2500    0.4167    0.5000
  band No.  band energies     occupation 
      1      -1.6111      2.00000
      2      -1.6111      2.00000
      3      -0.2377      2.00000
      4      -0.2377      2.00000
      5       1.5358      2.00000
      6       1.5358      2.00000
      7       2.7131      2.00000
      8       2.7131      2.00000
      9       5.9685      0.00000
     10       5.9685      0.00000
     11       7.4607      0.00000
     12       7.4607      0.00000

 k-point   652 :       0.3333    0.4167    0.5000
  band No.  band energies     occupation 
      1      -1.4375      2.00000
      2      -1.4375      2.00000
      3      -0.3309      2.00000
      4      -0.3309      2.00000
      5       1.3335      2.00000
      6       1.3335      2.00000
      7       2.3357      2.00000
      8       2.3357      2.00000
      9       6.8597      0.00000
     10       6.8597      0.00000
     11       7.5966      0.00000
     12       7.5966      0.00000

 k-point   653 :       0.4167    0.4167    0.5000
  band No.  band energies     occupation 
      1      -1.2481      2.00000
      2      -1.2481      2.00000
      3      -0.4965      2.00000
      4      -0.4965      2.00000
      5       1.3185      2.00000
      6       1.3185      2.00000
      7       2.0125      2.00000
      8       2.0125      2.00000
      9       7.5380      0.00000
     10       7.5380      0.00000
     11       7.9282      0.00000
     12       7.9282      0.00000

 k-point   654 :       0.5000    0.4167    0.5000
  band No.  band energies     occupation 
      1      -1.1430      2.00000
      2      -1.1430      2.00000
      3      -0.6008      2.00000
      4      -0.6008      2.00000
      5       1.3714      2.00000
      6       1.3714      2.00000
      7       1.8508      2.00000
      8       1.8508      2.00000
      9       7.6365      0.00000
     10       7.6365      0.00000
     11       8.5034      0.00000
     12       8.5034      0.00000

 k-point   655 :      -0.4167    0.4167    0.5000
  band No.  band energies     occupation 
      1      -1.2528      2.00000
      2      -1.2528      2.00000
      3      -0.4901      2.00000
      4      -0.4901      2.00000
      5       1.3334      2.00000
      6       1.3334      2.00000
      7       1.9929      2.00000
      8       1.9929      2.00000
      9       7.5247      0.00000
     10       7.5247      0.00000
     11       7.9083      0.00000
     12       7.9083      0.00000

 k-point   656 :      -0.3333    0.4167    0.5000
  band No.  band energies     occupation 
      1      -1.4424      2.00000
      2      -1.4424      2.00000
      3      -0.3231      2.00000
      4      -0.3231      2.00000
      5       1.3511      2.00000
      6       1.3511      2.00000
      7       2.3092      2.00000
      8       2.3092      2.00000
      9       6.8466      0.00000
     10       6.8466      0.00000
     11       7.5707      0.00000
     12       7.5707      0.00000

 k-point   657 :      -0.2500    0.4167    0.5000
  band No.  band energies     occupation 
      1      -1.6151      2.00000
      2      -1.6151      2.00000
      3      -0.2305      2.00000
      4      -0.2305      2.00000
      5       1.5543      2.00000
      6       1.5543      2.00000
      7       2.6829      2.00000
      8       2.6829      2.00000
      9       5.9583      0.00000
     10       5.9583      0.00000
     11       7.4353      0.00000
     12       7.4353      0.00000

 k-point   658 :      -0.1667    0.4167    0.5000
  band No.  band energies     occupation 
      1      -1.7457      2.00000
      2      -1.7457      2.00000
      3      -0.2156      2.00000
      4      -0.2156      2.00000
      5       1.9320      2.00000
      6       1.9320      2.00000
      7       3.0535      2.00000
      8       3.0535      2.00000
      9       5.1146      0.01222
     10       5.1146      0.01222
     11       7.3336      0.00000
     12       7.3336      0.00000

 k-point   659 :      -0.0833    0.4167    0.5000
  band No.  band energies     occupation 
      1      -1.8257      2.00000
      2      -1.8257      2.00000
      3      -0.2300      2.00000
      4      -0.2300      2.00000
      5       2.3811      2.00000
      6       2.3811      2.00000
      7       3.3558      2.00000
      8       3.3558      2.00000
      9       4.3913      2.00000
     10       4.3913      2.00000
     11       7.2678      0.00000
     12       7.2678      0.00000

 k-point   660 :       0.0000    0.5000    0.5000
  band No.  band energies     occupation 
      1      -1.7940      2.00000
      2      -1.7940      2.00000
      3      -0.3516      2.00000
      4      -0.3516      2.00000
      5       2.7556      2.00000
      6       2.7556      2.00000
      7       3.3489      2.00000
      8       3.3489      2.00000
      9       4.0289      2.00000
     10       4.0289      2.00000
     11       7.1855      0.00000
     12       7.1855      0.00000

 k-point   661 :       0.0833    0.5000    0.5000
  band No.  band energies     occupation 
      1      -1.7661      2.00000
      2      -1.7661      2.00000
      3      -0.3439      2.00000
      4      -0.3439      2.00000
      5       2.4677      2.00000
      6       2.4677      2.00000
      7       3.2383      2.00000
      8       3.2383      2.00000
      9       4.4005      2.00000
     10       4.4005      2.00000
     11       7.3433      0.00000
     12       7.3433      0.00000

 k-point   662 :       0.1667    0.5000    0.5000
  band No.  band energies     occupation 
      1      -1.6829      2.00000
      2      -1.6829      2.00000
      3      -0.3307      2.00000
      4      -0.3307      2.00000
      5       1.9953      2.00000
      6       1.9953      2.00000
      7       2.9522      2.00000
      8       2.9522      2.00000
      9       5.1355      0.00532
     10       5.1355      0.00532
     11       7.7607      0.00000
     12       7.7607      0.00000

 k-point   663 :       0.2500    0.5000    0.5000
  band No.  band energies     occupation 
      1      -1.5461      2.00000
      2      -1.5461      2.00000
      3      -0.3450      2.00000
      4      -0.3450      2.00000
      5       1.6060      2.00000
      6       1.6060      2.00000
      7       2.5821      2.00000
      8       2.5821      2.00000
      9       5.9904      0.00000
     10       5.9904      0.00000
     11       7.9788      0.00000
     12       7.9788      0.00000

 k-point   664 :       0.3333    0.5000    0.5000
  band No.  band energies     occupation 
      1      -1.3594      2.00000
      2      -1.3594      2.00000
      3      -0.4369      2.00000
      4      -0.4369      2.00000
      5       1.3955      2.00000
      6       1.3955      2.00000
      7       2.1984      2.00000
      8       2.1984      2.00000
      9       6.8993      0.00000
     10       6.8993      0.00000
     11       8.1678      0.00000
     12       8.1678      0.00000

 k-point   665 :       0.4167    0.5000    0.5000
  band No.  band energies     occupation 
      1      -1.1306      2.00000
      2      -1.1306      2.00000
      3      -0.6271      2.00000
      4      -0.6271      2.00000
      5       1.3948      2.00000
      6       1.3948      2.00000
      7       1.8469      2.00000
      8       1.8469      2.00000
      9       7.7954      0.00000
     10       7.7954      0.00000
     11       8.4184      0.00000
     12       8.4184      0.00000

 k-point   666 :       0.5000    0.5000    0.5000
  band No.  band energies     occupation 
      1      -0.8757      2.00000
      2      -0.8757      2.00000
      3      -0.8757      2.00000
      4      -0.8757      2.00000
      5       1.5645      2.00000
      6       1.5645      2.00000
      7       1.5645      2.00000
      8       1.5645      2.00000
      9       8.4533      0.00000
     10       8.4533      0.00000
     11       8.4533      0.00000
     12       8.4533      0.00000


--------------------------------------------------------------------------------------------------------


 soft charge-density along one line, spin component           1
         0         1         2         3         4         5         6         7         8         9
 total charge-density along one line

 pseudopotential strength for first ion, spin component:           1
 27.027   0.059   0.000   0.001   0.000   0.000   0.000   0.000
  0.059   5.851   0.000   0.000   0.000  -0.000  -0.000  -0.000
  0.000   0.000   5.772   0.000   0.000  -0.002  -0.000   0.000
  0.001   0.000   0.000   5.773   0.000  -0.000  -0.002  -0.000
  0.000   0.000   0.000   0.000   5.772   0.000  -0.000  -0.002
  0.000  -0.000  -0.002  -0.000   0.000   0.064   0.000  -0.000
  0.000  -0.000  -0.000  -0.002  -0.000   0.000   0.064   0.000
  0.000  -0.000   0.000  -0.000  -0.002  -0.000   0.000   0.064
  0.000   0.000   0.000  -0.000   0.000  -0.000   0.000  -0.000
  0.000   0.000  -0.001   0.000  -0.000   0.000  -0.000   0.000
  0.002  -0.000  -0.000   0.000  -0.000   0.000   0.000   0.000
  0.000   0.000  -0.000  -0.000   0.001   0.000   0.000  -0.000
  0.000   0.000  -0.000   0.001   0.000   0.000  -0.000  -0.000
 total augmentation occupancy for first ion, spin component:           1
  1.839   0.022   0.000  -0.002   0.000   0.000  -0.000   0.000  -0.001   0.000  -0.007   0.000  -0.001
  0.022   0.010   0.000   0.001  -0.000   0.000  -0.000   0.000  -0.000  -0.000   0.001   0.000   0.000
  0.000   0.000   0.850   0.000  -0.000  -0.299  -0.000   0.001   0.000  -0.048   0.000   0.000   0.000
 -0.002   0.001   0.000   0.798   0.000   0.000  -0.285   0.000  -0.000   0.000   0.000   0.000   0.052
  0.000   0.000  -0.000   0.000   0.837   0.001  -0.000  -0.296   0.000  -0.000   0.000   0.052   0.000
  0.000   0.000  -0.299   0.000   0.001   0.145  -0.000  -0.001  -0.000   0.018   0.000  -0.000   0.000
 -0.000  -0.000   0.000  -0.285   0.000   0.000   0.141   0.000   0.000   0.000   0.000   0.000  -0.020
  0.000   0.000   0.001   0.000  -0.296  -0.001  -0.000   0.145   0.000   0.000  -0.000  -0.020   0.000
 -0.001  -0.000   0.000  -0.000  -0.000   0.000   0.000   0.000   0.016   0.000   0.000   0.000  -0.000
  0.000   0.000  -0.048   0.000  -0.000   0.018  -0.000   0.000   0.000   0.026   0.000  -0.000   0.000
 -0.007   0.001   0.000   0.000   0.000   0.000   0.000   0.000   0.000   0.000   0.053   0.000   0.002
  0.000  -0.000   0.000   0.000   0.052  -0.000  -0.000  -0.020   0.000  -0.000   0.000   0.029   0.000
 -0.001   0.000   0.000   0.052   0.000   0.000  -0.020   0.000  -0.000   0.000   0.002   0.000   0.065


------------------------ aborting loop because EDIFF is reached ----------------------------------------


    CHARGE:  cpu time    0.08: real time    0.08
    FORLOC:  cpu time    0.00: real time    0.00
    FORNL :  cpu time    0.09: real time    0.09
    STRESS:  cpu time    0.34: real time    0.34
    FORCOR:  cpu time    0.00: real time    0.00
    FORHAR:  cpu time    0.00: real time    0.00
    MIXING:  cpu time    0.00: real time    0.00
    OFIELD:  cpu time    0.00: real time    0.00

  FORCE on cell =-STRESS in cart. coord.  units (eV):
  Direction    XX          YY          ZZ          XY          YZ          ZX
  --------------------------------------------------------------------------------------
  Alpha Z    17.87755    17.87755    17.87755
  Ewald    -145.55935  -146.57404  -142.58257    -0.47810     0.00000     0.00000
  Hartree     1.76978     1.48928     2.67388    -0.03826    -0.00000    -0.00000
  E(xc)     -69.72349   -69.80524   -69.40720     0.01410    -0.00000    -0.00000
  Local     -25.25073   -24.45790   -27.48148     0.55105     0.00000    -0.00000
  n-local   165.45615   165.94670   163.54042    -0.14867     0.16893    -0.01218
  augment   -46.69331   -46.84899   -46.18988     0.01730    -0.00000     0.00000
  Kinetic   102.74128   103.02545   102.45322     0.25971     3.05155     0.40798
  Fock        0.00000     0.00000     0.00000     0.00000     0.00000     0.00000
  -------------------------------------------------------------------------------------
  Total       0.61788     0.65282     0.88394     0.17714     0.00000     0.00000
  in kB       8.89966     9.40285    12.73187     2.55149     0.00000     0.00000
  external pressure =       10.34 kB  Pullay stress =        0.00 kB


 VOLUME and BASIS-vectors are now :
 -----------------------------------------------------------------------------
  energy-cutoff  :      300.00
  volume of cell :      111.24
      direct lattice vectors                 reciprocal lattice vectors
     5.884854169 -0.029721486  0.000000000     0.169932036  0.000849660 -0.000000000
    -0.029721486  5.944297140  0.000000000     0.000849660  0.168232716 -0.000000000
     0.000000000  0.000000000  3.179928430    -0.000000000 -0.000000000  0.314472486

  length of vectors
     5.884929223  5.944371444  3.179928430     0.169934161  0.168234862  0.314472486


 FORCES acting on ions
    electron-ion (+dipol)            ewald-force                    non-local-force                 convergence-correction
 -----------------------------------------------------------------------------------------------
   -.220E-07 0.147E-07 0.713E-01   -.204E-14 -.279E-14 -.103E+00   -.173E-17 -.139E-16 0.313E-01   0.899E-15 -.235E-14 -.486E-07
   0.220E-07 -.147E-07 -.713E-01   0.283E-14 0.345E-15 0.103E+00   0.000E+00 0.278E-16 -.313E-01   -.194E-14 -.233E-14 0.486E-07
   -.220E-07 0.147E-07 0.713E-01   0.104E-15 -.307E-15 -.103E+00   -.173E-17 -.139E-16 0.313E-01   -.231E-14 0.198E-14 -.486E-07
   0.220E-07 -.147E-07 -.713E-01   -.874E-15 0.280E-14 0.103E+00   0.000E+00 0.278E-16 -.313E-01   0.131E-14 0.198E-14 0.486E-07
 -----------------------------------------------------------------------------------------------
   -.565E-13 -.120E-13 -.615E-13   0.250E-16 0.461E-16 -.847E-15   -.347E-17 0.278E-16 -.694E-17   -.204E-14 -.723E-15 -.167E-14


 POSITION                                       TOTAL-FORCE (eV/Angst)
 -----------------------------------------------------------------------------------
     -0.00000     -0.00000      1.55718         0.000000      0.000000     -0.000081
      2.94243     -0.01486      2.41773         0.000000      0.000000      0.000081
      2.92757      2.95729     -0.03278         0.000000      0.000000     -0.000081
     -0.01486      2.97215      0.82776         0.000000      0.000000      0.000081
 -----------------------------------------------------------------------------------
    total drift:                               -0.000000     -0.000000     -0.000000


--------------------------------------------------------------------------------------------------------



  FREE ENERGIE OF THE ION-ELECTRON SYSTEM (eV)
  ---------------------------------------------------
  free  energy   TOTEN  =       -15.28996348 eV

  energy  without entropy=      -15.28630646  energy(sigma->0) =      -15.28813497

 d Force = 0.1417945E-08[-0.641E-08, 0.924E-08]  d Energy =-0.7561754E-07 0.770E-07
 d Force =-0.8071482E-05[-0.807E-05,-0.807E-05]  d Ewald  =-0.8071482E-05-0.688E-13


--------------------------------------------------------------------------------------------------------


    POTLOK:  cpu time    0.01: real time    0.01


--------------------------------------------------------------------------------------------------------




--------------------------------------------------------------------------------------------------------


  
 reached required accuracy - stopping structural energy minimisation
     LOOP+:  cpu time    4.58: real time    4.64
    4ORBIT:  cpu time    0.00: real time    0.00

 total amount of memory used by VASP on root node    46574. kBytes
========================================================================

   base      :      30000. kBytes
   nonl-proj :       7903. kBytes
   fftplans  :        196. kBytes
   grid      :        284. kBytes
   one-center:          8. kBytes
   wavefun   :       8183. kBytes

  
  
 General timing and accounting informations for this job:
 ========================================================
  
                  Total CPU time used (sec):       63.492
                            User time (sec):       63.144
                          System time (sec):        0.348
                         Elapsed time (sec):       69.845
  
                   Maximum memory used (kb):       40944.
                   Average memory used (kb):           0.
  
                          Minor page faults:        10713
                          Major page faults:            0
                 Voluntary context switches:         4856
