Sn                                      
           1
     5.884854   -0.029721    0.000000
    -0.029721    5.944297    0.000000
     0.000000    0.000000    3.179928
   Sn
   4
Direct configuration=     1
   0.00000000  0.00000000  0.50000000
   0.50000000  0.00000000  0.75000000
   0.50000000  0.50000000  0.00000000
   0.00000000  0.50000000  0.25000000
Direct configuration=     2
  -0.00000000 -0.00000000  0.49977029
   0.50000000  0.00000000  0.75022971
   0.50000000  0.50000000 -0.00022971
   0.00000000  0.50000000  0.25022971
Direct configuration=     3
  -0.00000000 -0.00000000  0.49908114
   0.50000000  0.00000000  0.75091886
   0.50000000  0.50000000 -0.00091886
   0.00000000  0.50000000  0.25091886
Direct configuration=     4
  -0.00000000 -0.00000000  0.49770286
   0.50000000  0.00000000  0.75229714
   0.50000000  0.50000000 -0.00229714
   0.00000000  0.50000000  0.25229714
Direct configuration=     5
  -0.00000000 -0.00000000  0.49494629
   0.50000000  0.00000000  0.75505371
   0.50000000  0.50000000 -0.00505371
   0.00000000  0.50000000  0.25505371
Direct configuration=     6
  -0.00000000 -0.00000000  0.48943316
   0.50000000  0.00000000  0.76056684
   0.50000000  0.50000000 -0.01056684
   0.00000000  0.50000000  0.26056684
Direct configuration=     7
  -0.00000000 -0.00000000  0.48974242
   0.50000000  0.00000000  0.76025758
   0.50000000  0.50000000 -0.01025758
   0.00000000  0.50000000  0.26025758
Direct configuration=     8
  -0.00000000 -0.00000000  0.48965931
   0.50000000  0.00000000  0.76034069
   0.50000000  0.50000000 -0.01034069
   0.00000000  0.50000000  0.26034069
Direct configuration=     9
  -0.00000000 -0.00000000  0.48969877
   0.50000000  0.00000000  0.76030123
   0.50000000  0.50000000 -0.01030123
   0.00000000  0.50000000  0.26030123
Direct configuration=    10
  -0.00000000 -0.00000000  0.48968564
   0.50000000  0.00000000  0.76031436
   0.50000000  0.50000000 -0.01031436
   0.00000000  0.50000000  0.26031436
Direct configuration=    11
  -0.00000000 -0.00000000  0.48969182
   0.50000000  0.00000000  0.76030818
   0.50000000  0.50000000 -0.01030818
   0.00000000  0.50000000  0.26030818
