       N       E                     dE             d eps       ncg     rms          rms(c)
DAV:   1     0.355142215492E+02    0.35514E+02   -0.39101E+03  6048   0.664E+02
DAV:   2    -0.125991331434E+02   -0.48113E+02   -0.45354E+02  7760   0.105E+02
DAV:   3    -0.153195706502E+02   -0.27204E+01   -0.26216E+01  8120   0.276E+01
DAV:   4    -0.153617047776E+02   -0.42134E-01   -0.41799E-01  7212   0.341E+00
DAV:   5    -0.153626079270E+02   -0.90315E-03   -0.90202E-03  8096   0.410E-01    0.150E+00
RMM:   6    -0.153227744922E+02    0.39833E-01   -0.88684E-03  6048   0.732E-01    0.937E-01
RMM:   7    -0.152976543023E+02    0.25120E-01   -0.27869E-02  6048   0.130E+00    0.622E-02
RMM:   8    -0.152978796791E+02   -0.22538E-03   -0.76009E-04  6105   0.225E-01    0.163E-02
RMM:   9    -0.152978903423E+02   -0.10663E-04   -0.40084E-05  6200   0.441E-02    0.571E-03
RMM:  10    -0.152979059531E+02   -0.15611E-04   -0.92047E-06  5610   0.190E-02    0.140E-03
RMM:  11    -0.152979066602E+02   -0.70705E-06   -0.24314E-07  3602   0.337E-03
   1 F= -.15297907E+02 E0= -.15295873E+02  d E =-.152979E+02
