 vasp.5.3.5 31Mar14 (build Nov 12 2015 11:19:23) complex                         
 executed on           CrayXC_GCC date 2016.06.29  17:18:51
 running on   96 total cores
 distrk:  each k-point on   24 cores,    4 groups
 distr:  one band on NCORES_PER_BAND=  12 cores,    2 groups


--------------------------------------------------------------------------------------------------------


 INCAR:
 POTCAR:   PAW_GGA Sn 07Sep2001                   

 ----------------------------------------------------------------------------- 
|                                                                             |
|           W    W    AA    RRRRR   N    N  II  N    N   GGGG   !!!           |
|           W    W   A  A   R    R  NN   N  II  NN   N  G    G  !!!           |
|           W    W  A    A  R    R  N N  N  II  N N  N  G       !!!           |
|           W WW W  AAAAAA  RRRRR   N  N N  II  N  N N  G  GGG   !            |
|           WW  WW  A    A  R   R   N   NN  II  N   NN  G    G                |
|           W    W  A    A  R    R  N    N  II  N    N   GGGG   !!!           |
|                                                                             |
|      You have enabled k-point parallelism (KPAR>1).                         |
|      This developmental code was originally  written by Paul Kent at ORNL,  |
|      and carefully double checked in Vienna.                                |
|      GW as well as linear response parallelism added by Martijn Marsman     |
|      and Georg Kresse.                                                      |
|      Carefully verify results versus KPAR=1.                                |
|      Report problems to Paul Kent and Vienna.                               |
|                                                                             |
 ----------------------------------------------------------------------------- 

 POTCAR:   PAW_GGA Sn 07Sep2001                   
   VRHFIN =Sn: s2p2                                                             
   LEXCH  = 91                                                                  
   EATOM  =    94.3376 eV,    6.9336 Ry                                         
                                                                                
   TITEL  = PAW_GGA Sn 07Sep2001                                                
   LULTRA =        F    use ultrasoft PP ?                                      
   IUNSCR =        1    unscreen: 0-lin 1-nonlin 2-no                           
   RPACOR =    2.000    partial core radius                                     
   POMASS =  118.710; ZVAL   =    4.000    mass and valenz                      
   RCORE  =    3.000    outmost cutoff radius                                   
   RWIGS  =    2.960; RWIGS  =    1.566    wigner-seitz radius (au A)           
   ENMAX  =  103.267; ENMIN  =   77.450 eV                                      
   ICORE  =        3    local potential                                         
   LCOR   =        T    correct aug charges                                     
   LPAW   =        T    paw PP                                                  
   EAUG   =  263.585                                                            
   DEXC   =    -.040                                                            
   RMAX   =    4.537    core radius for proj-oper                               
   RAUG   =    1.300    factor for augmentation sphere                          
   RDEP   =    3.022    radius for radial grids                                 
   QCUT   =   -2.755; QGAM   =    5.510    optimization parameters              
                                                                                
   Description                                                                  
     l     E      TYP  RCUT    TYP  RCUT                                        
     0   .000     23  3.000                                                     
     0  2.000     23  3.000                                                     
     1   .000     23  3.000                                                     
     1   .000     23  3.000                                                     
     2   .000     23  3.000                                                     
     3  -.200     23  3.000                                                     
  local pseudopotential read in
  partial core-charges read in
  atomic valenz-charges read in
  non local Contribution for L=           0  read in
    real space projection operators read in
  non local Contribution for L=           0  read in
    real space projection operators read in
  non local Contribution for L=           1  read in
    real space projection operators read in
  non local Contribution for L=           1  read in
    real space projection operators read in
  non local Contribution for L=           2  read in
    real space projection operators read in
    PAW grid and wavefunctions read in

   number of l-projection  operators is LMAX  =           5
   number of lm-projection operators is LMMAX =          13

 PAW_GGA Sn 07Sep2001                   :
 energy of atom  1       EATOM=  -94.3376
 kinetic energy error for atom=    0.0002 (will be added to EATOM!!)


 POSCAR: Sn4                                     
  positions in direct lattice
  No initial velocities read in
 exchange correlation table for  LEXCH =        7
   RHO(1)=    0.500       N(1)  =     2000
   RHO(2)=  100.500       N(2)  =     4000



--------------------------------------------------------------------------------------------------------


 ion  position               nearest neighbor table
   1  0.000  0.000  0.500-   2 3.08   4 3.08   4 3.08   2 3.08
   2  0.500  0.000  0.750-   1 3.08   3 3.08   3 3.08   1 3.08
   3  0.500  0.500  0.000-   2 3.08   4 3.08   2 3.08   4 3.08
   4  0.000  0.500  0.250-   1 3.08   3 3.08   1 3.08   3 3.08

  LATTYP: Found a simple tetragonal cell.
 ALAT       =     5.9442971404
 C/A-ratio  =     0.5403580681
  
  Lattice vectors:
  
 A1 = (   5.9442971404,   0.0000000000,   0.0000000000)
 A2 = (   0.0000000000,   5.9442971404,   0.0000000000)
 A3 = (   0.0000000000,  -0.0000000000,   3.2120489190)


Analysis of symmetry for initial positions (statically):
=====================================================================
 Subroutine PRICEL returns following result:
 
  LATTYP: Found a body centered tetragonal cell.
 ALAT       =     5.9442971404
 C/A-ratio  =     0.5403580681
  
  Lattice vectors:
  
 A1 = (   2.9721485702,  -2.9721485702,   1.6060244595)
 A2 = (  -2.9721485702,   2.9721485702,   1.6060244595)
 A3 = (  -2.9721485702,  -2.9721485702,  -1.6060244595)
 
   2 primitive cells build up your supercell.
 

 Routine SETGRP: Setting up the symmetry group for a 
 simple tetragonal supercell.


 Subroutine GETGRP returns: Found 16 space group operations
 (whereof  8 operations were pure point group operations)
 out of a pool of 16 trial point group operations.


The static configuration has the point symmetry D_2d.
 The point group associated with its full space group is D_4h.


Analysis of symmetry for dynamics (positions and initial velocities):
=====================================================================
 Subroutine PRICEL returns following result:
 
  LATTYP: Found a body centered tetragonal cell.
 ALAT       =     5.9442971404
 C/A-ratio  =     0.5403580681
  
  Lattice vectors:
  
 A1 = (   2.9721485702,  -2.9721485702,   1.6060244595)
 A2 = (  -2.9721485702,   2.9721485702,   1.6060244595)
 A3 = (  -2.9721485702,  -2.9721485702,  -1.6060244595)
 
   2 primitive cells build up your supercell.
 

 Routine SETGRP: Setting up the symmetry group for a 
 simple tetragonal supercell.


 Subroutine GETGRP returns: Found 16 space group operations
 (whereof  8 operations were pure point group operations)
 out of a pool of 16 trial point group operations.


The dynamic configuration has the point symmetry D_2d.
 The point group associated with its full space group is D_4h.


 KPOINTS: Automatic                               

Automatic generation of k-mesh.
Space group operators:
 irot       det(A)        alpha          n_x          n_y          n_z        tau_x        tau_y        tau_z
    1     1.000000     0.000001     1.000000     0.000000     0.000000    -0.000000    -0.000000     0.000000
    2    -1.000000    90.000000     0.000000     0.000000    -1.000000    -0.000000    -0.000000     0.000000
    3     1.000000   180.000000     0.000000     0.000000     1.000000    -0.000000    -0.000000     0.000000
    4    -1.000000    90.000000     0.000000     0.000000     1.000000    -0.000000    -0.000000     0.000000
    5    -1.000000   180.000000     0.000000     1.000000     0.000000    -0.000000    -0.000000     0.000000
    6     1.000000   180.000000     0.707107     0.707107     0.000000    -0.000000    -0.000000     0.000000
    7    -1.000000   180.000000     1.000000     0.000000     0.000000    -0.000000    -0.000000     0.000000
    8     1.000000   180.000000     0.707107    -0.707107     0.000000    -0.000000    -0.000000     0.000000
    9    -1.000000     0.000001     1.000000     0.000000     0.000000    -0.500000     0.000000     0.250000
   10     1.000000    90.000000     0.000000     0.000000    -1.000000    -0.500000     0.000000     0.250000
   11    -1.000000   180.000000     0.000000     0.000000     1.000000    -0.500000     0.000000     0.250000
   12     1.000000    90.000000     0.000000     0.000000     1.000000    -0.500000     0.000000     0.250000
   13     1.000000   180.000000     0.000000     1.000000     0.000000    -0.500000     0.000000     0.250000
   14    -1.000000   180.000000     0.707107     0.707107     0.000000    -0.500000     0.000000     0.250000
   15     1.000000   180.000000     1.000000     0.000000     0.000000    -0.500000     0.000000     0.250000
   16    -1.000000   180.000000     0.707107    -0.707107     0.000000    -0.500000     0.000000     0.250000
 
 Subroutine IBZKPT returns following result:
 ===========================================
 
 Found    252 irreducible k-points:
 
 Following reciprocal coordinates:
            Coordinates               Weight
  0.000000  0.000000  0.000000      1.000000
  0.083333  0.000000  0.000000      4.000000
  0.166667  0.000000  0.000000      4.000000
  0.250000  0.000000  0.000000      4.000000
  0.333333  0.000000  0.000000      4.000000
  0.416667  0.000000  0.000000      4.000000
  0.500000  0.000000  0.000000      2.000000
  0.083333  0.083333  0.000000      4.000000
  0.166667  0.083333  0.000000      8.000000
  0.250000  0.083333  0.000000      8.000000
  0.333333  0.083333  0.000000      8.000000
  0.416667  0.083333  0.000000      8.000000
  0.500000  0.083333  0.000000      4.000000
  0.166667  0.166667  0.000000      4.000000
  0.250000  0.166667  0.000000      8.000000
  0.333333  0.166667  0.000000      8.000000
  0.416667  0.166667  0.000000      8.000000
  0.500000  0.166667  0.000000      4.000000
  0.250000  0.250000  0.000000      4.000000
  0.333333  0.250000  0.000000      8.000000
  0.416667  0.250000  0.000000      8.000000
  0.500000  0.250000  0.000000      4.000000
  0.333333  0.333333  0.000000      4.000000
  0.416667  0.333333  0.000000      8.000000
  0.500000  0.333333  0.000000      4.000000
  0.416667  0.416667  0.000000      4.000000
  0.500000  0.416667  0.000000      4.000000
  0.500000  0.500000  0.000000      1.000000
  0.000000  0.000000  0.062500      2.000000
  0.083333  0.000000  0.062500      8.000000
  0.166667  0.000000  0.062500      8.000000
  0.250000  0.000000  0.062500      8.000000
  0.333333  0.000000  0.062500      8.000000
  0.416667  0.000000  0.062500      8.000000
  0.500000  0.000000  0.062500      4.000000
  0.083333  0.083333  0.062500      8.000000
  0.166667  0.083333  0.062500     16.000000
  0.250000  0.083333  0.062500     16.000000
  0.333333  0.083333  0.062500     16.000000
  0.416667  0.083333  0.062500     16.000000
  0.500000  0.083333  0.062500      8.000000
  0.166667  0.166667  0.062500      8.000000
  0.250000  0.166667  0.062500     16.000000
  0.333333  0.166667  0.062500     16.000000
  0.416667  0.166667  0.062500     16.000000
  0.500000  0.166667  0.062500      8.000000
  0.250000  0.250000  0.062500      8.000000
  0.333333  0.250000  0.062500     16.000000
  0.416667  0.250000  0.062500     16.000000
  0.500000  0.250000  0.062500      8.000000
  0.333333  0.333333  0.062500      8.000000
  0.416667  0.333333  0.062500     16.000000
  0.500000  0.333333  0.062500      8.000000
  0.416667  0.416667  0.062500      8.000000
  0.500000  0.416667  0.062500      8.000000
  0.500000  0.500000  0.062500      2.000000
  0.000000  0.000000  0.125000      2.000000
  0.083333  0.000000  0.125000      8.000000
  0.166667  0.000000  0.125000      8.000000
  0.250000  0.000000  0.125000      8.000000
  0.333333  0.000000  0.125000      8.000000
  0.416667  0.000000  0.125000      8.000000
  0.500000  0.000000  0.125000      4.000000
  0.083333  0.083333  0.125000      8.000000
  0.166667  0.083333  0.125000     16.000000
  0.250000  0.083333  0.125000     16.000000
  0.333333  0.083333  0.125000     16.000000
  0.416667  0.083333  0.125000     16.000000
  0.500000  0.083333  0.125000      8.000000
  0.166667  0.166667  0.125000      8.000000
  0.250000  0.166667  0.125000     16.000000
  0.333333  0.166667  0.125000     16.000000
  0.416667  0.166667  0.125000     16.000000
  0.500000  0.166667  0.125000      8.000000
  0.250000  0.250000  0.125000      8.000000
  0.333333  0.250000  0.125000     16.000000
  0.416667  0.250000  0.125000     16.000000
  0.500000  0.250000  0.125000      8.000000
  0.333333  0.333333  0.125000      8.000000
  0.416667  0.333333  0.125000     16.000000
  0.500000  0.333333  0.125000      8.000000
  0.416667  0.416667  0.125000      8.000000
  0.500000  0.416667  0.125000      8.000000
  0.500000  0.500000  0.125000      2.000000
  0.000000  0.000000  0.187500      2.000000
  0.083333  0.000000  0.187500      8.000000
  0.166667  0.000000  0.187500      8.000000
  0.250000  0.000000  0.187500      8.000000
  0.333333  0.000000  0.187500      8.000000
  0.416667  0.000000  0.187500      8.000000
  0.500000  0.000000  0.187500      4.000000
  0.083333  0.083333  0.187500      8.000000
  0.166667  0.083333  0.187500     16.000000
  0.250000  0.083333  0.187500     16.000000
  0.333333  0.083333  0.187500     16.000000
  0.416667  0.083333  0.187500     16.000000
  0.500000  0.083333  0.187500      8.000000
  0.166667  0.166667  0.187500      8.000000
  0.250000  0.166667  0.187500     16.000000
  0.333333  0.166667  0.187500     16.000000
  0.416667  0.166667  0.187500     16.000000
  0.500000  0.166667  0.187500      8.000000
  0.250000  0.250000  0.187500      8.000000
  0.333333  0.250000  0.187500     16.000000
  0.416667  0.250000  0.187500     16.000000
  0.500000  0.250000  0.187500      8.000000
  0.333333  0.333333  0.187500      8.000000
  0.416667  0.333333  0.187500     16.000000
  0.500000  0.333333  0.187500      8.000000
  0.416667  0.416667  0.187500      8.000000
  0.500000  0.416667  0.187500      8.000000
  0.500000  0.500000  0.187500      2.000000
  0.000000  0.000000  0.250000      2.000000
  0.083333  0.000000  0.250000      8.000000
  0.166667  0.000000  0.250000      8.000000
  0.250000  0.000000  0.250000      8.000000
  0.333333  0.000000  0.250000      8.000000
  0.416667  0.000000  0.250000      8.000000
  0.500000  0.000000  0.250000      4.000000
  0.083333  0.083333  0.250000      8.000000
  0.166667  0.083333  0.250000     16.000000
  0.250000  0.083333  0.250000     16.000000
  0.333333  0.083333  0.250000     16.000000
  0.416667  0.083333  0.250000     16.000000
  0.500000  0.083333  0.250000      8.000000
  0.166667  0.166667  0.250000      8.000000
  0.250000  0.166667  0.250000     16.000000
  0.333333  0.166667  0.250000     16.000000
  0.416667  0.166667  0.250000     16.000000
  0.500000  0.166667  0.250000      8.000000
  0.250000  0.250000  0.250000      8.000000
  0.333333  0.250000  0.250000     16.000000
  0.416667  0.250000  0.250000     16.000000
  0.500000  0.250000  0.250000      8.000000
  0.333333  0.333333  0.250000      8.000000
  0.416667  0.333333  0.250000     16.000000
  0.500000  0.333333  0.250000      8.000000
  0.416667  0.416667  0.250000      8.000000
  0.500000  0.416667  0.250000      8.000000
  0.500000  0.500000  0.250000      2.000000
  0.000000  0.000000  0.312500      2.000000
  0.083333  0.000000  0.312500      8.000000
  0.166667  0.000000  0.312500      8.000000
  0.250000  0.000000  0.312500      8.000000
  0.333333  0.000000  0.312500      8.000000
  0.416667  0.000000  0.312500      8.000000
  0.500000  0.000000  0.312500      4.000000
  0.083333  0.083333  0.312500      8.000000
  0.166667  0.083333  0.312500     16.000000
  0.250000  0.083333  0.312500     16.000000
  0.333333  0.083333  0.312500     16.000000
  0.416667  0.083333  0.312500     16.000000
  0.500000  0.083333  0.312500      8.000000
  0.166667  0.166667  0.312500      8.000000
  0.250000  0.166667  0.312500     16.000000
  0.333333  0.166667  0.312500     16.000000
  0.416667  0.166667  0.312500     16.000000
  0.500000  0.166667  0.312500      8.000000
  0.250000  0.250000  0.312500      8.000000
  0.333333  0.250000  0.312500     16.000000
  0.416667  0.250000  0.312500     16.000000
  0.500000  0.250000  0.312500      8.000000
  0.333333  0.333333  0.312500      8.000000
  0.416667  0.333333  0.312500     16.000000
  0.500000  0.333333  0.312500      8.000000
  0.416667  0.416667  0.312500      8.000000
  0.500000  0.416667  0.312500      8.000000
  0.500000  0.500000  0.312500      2.000000
  0.000000  0.000000  0.375000      2.000000
  0.083333  0.000000  0.375000      8.000000
  0.166667  0.000000  0.375000      8.000000
  0.250000  0.000000  0.375000      8.000000
  0.333333  0.000000  0.375000      8.000000
  0.416667  0.000000  0.375000      8.000000
  0.500000  0.000000  0.375000      4.000000
  0.083333  0.083333  0.375000      8.000000
  0.166667  0.083333  0.375000     16.000000
  0.250000  0.083333  0.375000     16.000000
  0.333333  0.083333  0.375000     16.000000
  0.416667  0.083333  0.375000     16.000000
  0.500000  0.083333  0.375000      8.000000
  0.166667  0.166667  0.375000      8.000000
  0.250000  0.166667  0.375000     16.000000
  0.333333  0.166667  0.375000     16.000000
  0.416667  0.166667  0.375000     16.000000
  0.500000  0.166667  0.375000      8.000000
  0.250000  0.250000  0.375000      8.000000
  0.333333  0.250000  0.375000     16.000000
  0.416667  0.250000  0.375000     16.000000
  0.500000  0.250000  0.375000      8.000000
  0.333333  0.333333  0.375000      8.000000
  0.416667  0.333333  0.375000     16.000000
  0.500000  0.333333  0.375000      8.000000
  0.416667  0.416667  0.375000      8.000000
  0.500000  0.416667  0.375000      8.000000
  0.500000  0.500000  0.375000      2.000000
  0.000000  0.000000  0.437500      2.000000
  0.083333  0.000000  0.437500      8.000000
  0.166667  0.000000  0.437500      8.000000
  0.250000  0.000000  0.437500      8.000000
  0.333333  0.000000  0.437500      8.000000
  0.416667  0.000000  0.437500      8.000000
  0.500000  0.000000  0.437500      4.000000
  0.083333  0.083333  0.437500      8.000000
  0.166667  0.083333  0.437500     16.000000
  0.250000  0.083333  0.437500     16.000000
  0.333333  0.083333  0.437500     16.000000
  0.416667  0.083333  0.437500     16.000000
  0.500000  0.083333  0.437500      8.000000
  0.166667  0.166667  0.437500      8.000000
  0.250000  0.166667  0.437500     16.000000
  0.333333  0.166667  0.437500     16.000000
  0.416667  0.166667  0.437500     16.000000
  0.500000  0.166667  0.437500      8.000000
  0.250000  0.250000  0.437500      8.000000
  0.333333  0.250000  0.437500     16.000000
  0.416667  0.250000  0.437500     16.000000
  0.500000  0.250000  0.437500      8.000000
  0.333333  0.333333  0.437500      8.000000
  0.416667  0.333333  0.437500     16.000000
  0.500000  0.333333  0.437500      8.000000
  0.416667  0.416667  0.437500      8.000000
  0.500000  0.416667  0.437500      8.000000
  0.500000  0.500000  0.437500      2.000000
  0.000000  0.000000  0.500000      1.000000
  0.083333  0.000000  0.500000      4.000000
  0.166667  0.000000  0.500000      4.000000
  0.250000  0.000000  0.500000      4.000000
  0.333333  0.000000  0.500000      4.000000
  0.416667  0.000000  0.500000      4.000000
  0.500000  0.000000  0.500000      2.000000
  0.083333  0.083333  0.500000      4.000000
  0.166667  0.083333  0.500000      8.000000
  0.250000  0.083333  0.500000      8.000000
  0.333333  0.083333  0.500000      8.000000
  0.416667  0.083333  0.500000      8.000000
  0.500000  0.083333  0.500000      4.000000
  0.166667  0.166667  0.500000      4.000000
  0.250000  0.166667  0.500000      8.000000
  0.333333  0.166667  0.500000      8.000000
  0.416667  0.166667  0.500000      8.000000
  0.500000  0.166667  0.500000      4.000000
  0.250000  0.250000  0.500000      4.000000
  0.333333  0.250000  0.500000      8.000000
  0.416667  0.250000  0.500000      8.000000
  0.500000  0.250000  0.500000      4.000000
  0.333333  0.333333  0.500000      4.000000
  0.416667  0.333333  0.500000      8.000000
  0.500000  0.333333  0.500000      4.000000
  0.416667  0.416667  0.500000      4.000000
  0.500000  0.416667  0.500000      4.000000
  0.500000  0.500000  0.500000      1.000000
 
 Following cartesian coordinates:
            Coordinates               Weight
  0.000000  0.000000  0.000000      1.000000
  0.014019  0.000000  0.000000      4.000000
  0.028038  0.000000  0.000000      4.000000
  0.042057  0.000000  0.000000      4.000000
  0.056076  0.000000  0.000000      4.000000
  0.070095  0.000000  0.000000      4.000000
  0.084114  0.000000  0.000000      2.000000
  0.014019  0.014019  0.000000      4.000000
  0.028038  0.014019  0.000000      8.000000
  0.042057  0.014019  0.000000      8.000000
  0.056076  0.014019  0.000000      8.000000
  0.070095  0.014019  0.000000      8.000000
  0.084114  0.014019  0.000000      4.000000
  0.028038  0.028038  0.000000      4.000000
  0.042057  0.028038  0.000000      8.000000
  0.056076  0.028038  0.000000      8.000000
  0.070095  0.028038  0.000000      8.000000
  0.084114  0.028038  0.000000      4.000000
  0.042057  0.042057  0.000000      4.000000
  0.056076  0.042057  0.000000      8.000000
  0.070095  0.042057  0.000000      8.000000
  0.084114  0.042057  0.000000      4.000000
  0.056076  0.056076  0.000000      4.000000
  0.070095  0.056076  0.000000      8.000000
  0.084114  0.056076  0.000000      4.000000
  0.070095  0.070095  0.000000      4.000000
  0.084114  0.070095  0.000000      4.000000
  0.084114  0.084114  0.000000      1.000000
  0.000000  0.000000  0.019458      2.000000
  0.014019  0.000000  0.019458      8.000000
  0.028038  0.000000  0.019458      8.000000
  0.042057  0.000000  0.019458      8.000000
  0.056076  0.000000  0.019458      8.000000
  0.070095  0.000000  0.019458      8.000000
  0.084114  0.000000  0.019458      4.000000
  0.014019  0.014019  0.019458      8.000000
  0.028038  0.014019  0.019458     16.000000
  0.042057  0.014019  0.019458     16.000000
  0.056076  0.014019  0.019458     16.000000
  0.070095  0.014019  0.019458     16.000000
  0.084114  0.014019  0.019458      8.000000
  0.028038  0.028038  0.019458      8.000000
  0.042057  0.028038  0.019458     16.000000
  0.056076  0.028038  0.019458     16.000000
  0.070095  0.028038  0.019458     16.000000
  0.084114  0.028038  0.019458      8.000000
  0.042057  0.042057  0.019458      8.000000
  0.056076  0.042057  0.019458     16.000000
  0.070095  0.042057  0.019458     16.000000
  0.084114  0.042057  0.019458      8.000000
  0.056076  0.056076  0.019458      8.000000
  0.070095  0.056076  0.019458     16.000000
  0.084114  0.056076  0.019458      8.000000
  0.070095  0.070095  0.019458      8.000000
  0.084114  0.070095  0.019458      8.000000
  0.084114  0.084114  0.019458      2.000000
  0.000000  0.000000  0.038916      2.000000
  0.014019  0.000000  0.038916      8.000000
  0.028038  0.000000  0.038916      8.000000
  0.042057  0.000000  0.038916      8.000000
  0.056076  0.000000  0.038916      8.000000
  0.070095  0.000000  0.038916      8.000000
  0.084114  0.000000  0.038916      4.000000
  0.014019  0.014019  0.038916      8.000000
  0.028038  0.014019  0.038916     16.000000
  0.042057  0.014019  0.038916     16.000000
  0.056076  0.014019  0.038916     16.000000
  0.070095  0.014019  0.038916     16.000000
  0.084114  0.014019  0.038916      8.000000
  0.028038  0.028038  0.038916      8.000000
  0.042057  0.028038  0.038916     16.000000
  0.056076  0.028038  0.038916     16.000000
  0.070095  0.028038  0.038916     16.000000
  0.084114  0.028038  0.038916      8.000000
  0.042057  0.042057  0.038916      8.000000
  0.056076  0.042057  0.038916     16.000000
  0.070095  0.042057  0.038916     16.000000
  0.084114  0.042057  0.038916      8.000000
  0.056076  0.056076  0.038916      8.000000
  0.070095  0.056076  0.038916     16.000000
  0.084114  0.056076  0.038916      8.000000
  0.070095  0.070095  0.038916      8.000000
  0.084114  0.070095  0.038916      8.000000
  0.084114  0.084114  0.038916      2.000000
  0.000000  0.000000  0.058374      2.000000
  0.014019  0.000000  0.058374      8.000000
  0.028038  0.000000  0.058374      8.000000
  0.042057  0.000000  0.058374      8.000000
  0.056076  0.000000  0.058374      8.000000
  0.070095  0.000000  0.058374      8.000000
  0.084114  0.000000  0.058374      4.000000
  0.014019  0.014019  0.058374      8.000000
  0.028038  0.014019  0.058374     16.000000
  0.042057  0.014019  0.058374     16.000000
  0.056076  0.014019  0.058374     16.000000
  0.070095  0.014019  0.058374     16.000000
  0.084114  0.014019  0.058374      8.000000
  0.028038  0.028038  0.058374      8.000000
  0.042057  0.028038  0.058374     16.000000
  0.056076  0.028038  0.058374     16.000000
  0.070095  0.028038  0.058374     16.000000
  0.084114  0.028038  0.058374      8.000000
  0.042057  0.042057  0.058374      8.000000
  0.056076  0.042057  0.058374     16.000000
  0.070095  0.042057  0.058374     16.000000
  0.084114  0.042057  0.058374      8.000000
  0.056076  0.056076  0.058374      8.000000
  0.070095  0.056076  0.058374     16.000000
  0.084114  0.056076  0.058374      8.000000
  0.070095  0.070095  0.058374      8.000000
  0.084114  0.070095  0.058374      8.000000
  0.084114  0.084114  0.058374      2.000000
  0.000000  0.000000  0.077832      2.000000
  0.014019  0.000000  0.077832      8.000000
  0.028038  0.000000  0.077832      8.000000
  0.042057  0.000000  0.077832      8.000000
  0.056076  0.000000  0.077832      8.000000
  0.070095  0.000000  0.077832      8.000000
  0.084114  0.000000  0.077832      4.000000
  0.014019  0.014019  0.077832      8.000000
  0.028038  0.014019  0.077832     16.000000
  0.042057  0.014019  0.077832     16.000000
  0.056076  0.014019  0.077832     16.000000
  0.070095  0.014019  0.077832     16.000000
  0.084114  0.014019  0.077832      8.000000
  0.028038  0.028038  0.077832      8.000000
  0.042057  0.028038  0.077832     16.000000
  0.056076  0.028038  0.077832     16.000000
  0.070095  0.028038  0.077832     16.000000
  0.084114  0.028038  0.077832      8.000000
  0.042057  0.042057  0.077832      8.000000
  0.056076  0.042057  0.077832     16.000000
  0.070095  0.042057  0.077832     16.000000
  0.084114  0.042057  0.077832      8.000000
  0.056076  0.056076  0.077832      8.000000
  0.070095  0.056076  0.077832     16.000000
  0.084114  0.056076  0.077832      8.000000
  0.070095  0.070095  0.077832      8.000000
  0.084114  0.070095  0.077832      8.000000
  0.084114  0.084114  0.077832      2.000000
  0.000000  0.000000  0.097290      2.000000
  0.014019  0.000000  0.097290      8.000000
  0.028038  0.000000  0.097290      8.000000
  0.042057  0.000000  0.097290      8.000000
  0.056076  0.000000  0.097290      8.000000
  0.070095  0.000000  0.097290      8.000000
  0.084114  0.000000  0.097290      4.000000
  0.014019  0.014019  0.097290      8.000000
  0.028038  0.014019  0.097290     16.000000
  0.042057  0.014019  0.097290     16.000000
  0.056076  0.014019  0.097290     16.000000
  0.070095  0.014019  0.097290     16.000000
  0.084114  0.014019  0.097290      8.000000
  0.028038  0.028038  0.097290      8.000000
  0.042057  0.028038  0.097290     16.000000
  0.056076  0.028038  0.097290     16.000000
  0.070095  0.028038  0.097290     16.000000
  0.084114  0.028038  0.097290      8.000000
  0.042057  0.042057  0.097290      8.000000
  0.056076  0.042057  0.097290     16.000000
  0.070095  0.042057  0.097290     16.000000
  0.084114  0.042057  0.097290      8.000000
  0.056076  0.056076  0.097290      8.000000
  0.070095  0.056076  0.097290     16.000000
  0.084114  0.056076  0.097290      8.000000
  0.070095  0.070095  0.097290      8.000000
  0.084114  0.070095  0.097290      8.000000
  0.084114  0.084114  0.097290      2.000000
  0.000000  0.000000  0.116748      2.000000
  0.014019  0.000000  0.116748      8.000000
  0.028038  0.000000  0.116748      8.000000
  0.042057  0.000000  0.116748      8.000000
  0.056076  0.000000  0.116748      8.000000
  0.070095  0.000000  0.116748      8.000000
  0.084114  0.000000  0.116748      4.000000
  0.014019  0.014019  0.116748      8.000000
  0.028038  0.014019  0.116748     16.000000
  0.042057  0.014019  0.116748     16.000000
  0.056076  0.014019  0.116748     16.000000
  0.070095  0.014019  0.116748     16.000000
  0.084114  0.014019  0.116748      8.000000
  0.028038  0.028038  0.116748      8.000000
  0.042057  0.028038  0.116748     16.000000
  0.056076  0.028038  0.116748     16.000000
  0.070095  0.028038  0.116748     16.000000
  0.084114  0.028038  0.116748      8.000000
  0.042057  0.042057  0.116748      8.000000
  0.056076  0.042057  0.116748     16.000000
  0.070095  0.042057  0.116748     16.000000
  0.084114  0.042057  0.116748      8.000000
  0.056076  0.056076  0.116748      8.000000
  0.070095  0.056076  0.116748     16.000000
  0.084114  0.056076  0.116748      8.000000
  0.070095  0.070095  0.116748      8.000000
  0.084114  0.070095  0.116748      8.000000
  0.084114  0.084114  0.116748      2.000000
  0.000000  0.000000  0.136206      2.000000
  0.014019  0.000000  0.136206      8.000000
  0.028038  0.000000  0.136206      8.000000
  0.042057  0.000000  0.136206      8.000000
  0.056076  0.000000  0.136206      8.000000
  0.070095  0.000000  0.136206      8.000000
  0.084114  0.000000  0.136206      4.000000
  0.014019  0.014019  0.136206      8.000000
  0.028038  0.014019  0.136206     16.000000
  0.042057  0.014019  0.136206     16.000000
  0.056076  0.014019  0.136206     16.000000
  0.070095  0.014019  0.136206     16.000000
  0.084114  0.014019  0.136206      8.000000
  0.028038  0.028038  0.136206      8.000000
  0.042057  0.028038  0.136206     16.000000
  0.056076  0.028038  0.136206     16.000000
  0.070095  0.028038  0.136206     16.000000
  0.084114  0.028038  0.136206      8.000000
  0.042057  0.042057  0.136206      8.000000
  0.056076  0.042057  0.136206     16.000000
  0.070095  0.042057  0.136206     16.000000
  0.084114  0.042057  0.136206      8.000000
  0.056076  0.056076  0.136206      8.000000
  0.070095  0.056076  0.136206     16.000000
  0.084114  0.056076  0.136206      8.000000
  0.070095  0.070095  0.136206      8.000000
  0.084114  0.070095  0.136206      8.000000
  0.084114  0.084114  0.136206      2.000000
  0.000000  0.000000  0.155664      1.000000
  0.014019  0.000000  0.155664      4.000000
  0.028038  0.000000  0.155664      4.000000
  0.042057  0.000000  0.155664      4.000000
  0.056076  0.000000  0.155664      4.000000
  0.070095  0.000000  0.155664      4.000000
  0.084114  0.000000  0.155664      2.000000
  0.014019  0.014019  0.155664      4.000000
  0.028038  0.014019  0.155664      8.000000
  0.042057  0.014019  0.155664      8.000000
  0.056076  0.014019  0.155664      8.000000
  0.070095  0.014019  0.155664      8.000000
  0.084114  0.014019  0.155664      4.000000
  0.028038  0.028038  0.155664      4.000000
  0.042057  0.028038  0.155664      8.000000
  0.056076  0.028038  0.155664      8.000000
  0.070095  0.028038  0.155664      8.000000
  0.084114  0.028038  0.155664      4.000000
  0.042057  0.042057  0.155664      4.000000
  0.056076  0.042057  0.155664      8.000000
  0.070095  0.042057  0.155664      8.000000
  0.084114  0.042057  0.155664      4.000000
  0.056076  0.056076  0.155664      4.000000
  0.070095  0.056076  0.155664      8.000000
  0.084114  0.056076  0.155664      4.000000
  0.070095  0.070095  0.155664      4.000000
  0.084114  0.070095  0.155664      4.000000
  0.084114  0.084114  0.155664      1.000000
 


--------------------------------------------------------------------------------------------------------




 Dimension of arrays:
   k-points           NKPTS =    252   k-points in BZ     NKDIM =    252   number of bands    NBANDS=     12
   number of dos      NEDOS =    301   number of ions     NIONS =      4
   non local maximal  LDIM  =      5   non local SUM 2l+1 LMDIM =     13
   total plane-waves  NPLWV =  10976
   max r-space proj   IRMAX =      1   max aug-charges    IRDMAX=   9507
   dimension x,y,z NGX =    28 NGY =   28 NGZ =   14
   dimension x,y,z NGXF=    56 NGYF=   56 NGZF=   28
   support grid    NGXF=    56 NGYF=   56 NGZF=   28
   ions per type =               4
 NGX,Y,Z   is equivalent  to a cutoff of   7.83,  7.83,  7.25 a.u.
 NGXF,Y,Z  is equivalent  to a cutoff of  15.66, 15.66, 14.49 a.u.


 I would recommend the setting:
   dimension x,y,z NGX =    25 NGY =   25 NGZ =   14
 SYSTEM =  Sn                                      
 POSCAR =  Sn4                                     

 Startparameter for this run:
   NWRITE =      2    write-flag & timer
   PREC   = n         normal or accurate (medium, high low for compatibility)
   ISTART =      0    job   : 0-new  1-cont  2-samecut
   ICHARG =      2    charge: 1-file 2-atom 10-const
   ISPIN  =      1    spin polarized calculation?
   LNONCOLLINEAR =      F non collinear calculations
   LSORBIT =      F    spin-orbit coupling
   INIWAV =      1    electr: 0-lowe 1-rand  2-diag
   LASPH  =      F    aspherical Exc in radial PAW
   METAGGA=      F    non-selfconsistent MetaGGA calc.

 Electronic Relaxation 1
   ENCUT  =  300.0 eV  22.05 Ry    4.70 a.u.   8.39  8.39  4.54*2*pi/ulx,y,z
   ENINI  =  300.0     initial cutoff
   ENAUG  =  263.6 eV  augmentation charge cutoff
   NELM   =     40;   NELMIN=  4; NELMDL= -5     # of ELM steps 
   EDIFF  = 0.1E-05   stopping-criterion for ELM
   LREAL  =      F    real-space projection
   NLSPLINE    = F    spline interpolate recip. space projectors
   LCOMPAT=      F    compatible to vasp.4.4
   GGA_COMPAT  = T    GGA compatible to vasp.4.4-vasp.4.6
   LMAXPAW     = -100 max onsite density
   LMAXMIX     =    2 max onsite mixed and CHGCAR
   VOSKOWN=      0    Vosko Wilk Nusair interpolation
   ROPT   =    0.00000
 Ionic relaxation
   EDIFFG = -.1E-03   stopping-criterion for IOM
   NSW    =    100    number of steps for IOM
   NBLOCK =      1;   KBLOCK =    100    inner block; outer block 
   IBRION =      2    ionic relax: 0-MD 1-quasi-New 2-CG
   NFREE  =      1    steps in history (QN), initial steepest desc. (CG)
   ISIF   =      2    stress and relaxation
   IWAVPR =     11    prediction:  0-non 1-charg 2-wave 3-comb
   ISYM   =      2    0-nonsym 1-usesym 2-fastsym
   LCORR  =      T    Harris-Foulkes like correction to forces

   POTIM  = 0.3000    time-step for ionic-motion
   TEIN   =    0.0    initial temperature
   TEBEG  =    0.0;   TEEND  =   0.0 temperature during run
   SMASS  =  -3.00    Nose mass-parameter (am)
   estimated Nose-frequenzy (Omega)   =  0.10E-29 period in steps =****** mass=  -0.807E-27a.u.
   SCALEE = 1.0000    scale energy and forces
   NPACO  =    256;   APACO  = 16.0  distance and # of slots for P.C.
   PSTRESS=    0.0 pullay stress

  Mass of Ions in am
   POMASS = 118.71
  Ionic Valenz
   ZVAL   =   4.00
  Atomic Wigner-Seitz radii
   RWIGS  =  -1.00
  virtual crystal weights 
   VCA    =   1.00
   NELECT =      16.0000    total number of electrons
   NUPDOWN=      -1.0000    fix difference up-down

 DOS related values:
   EMIN   =  10.00;   EMAX   =-10.00  energy-range for DOS
   EFERMI =   0.00
   ISMEAR =    -1;   SIGMA  =   0.03  broadening in eV -4-tet -1-fermi 0-gaus

 Electronic relaxation 2 (details)
   IALGO  =     68    algorithm
   LDIAG  =      T    sub-space diagonalisation (order eigenvalues)
   LSUBROT=      F    optimize rotation matrix (better conditioning)
   TURBO    =      0    0=normal 1=particle mesh
   IRESTART =      0    0=no restart 2=restart with 2 vectors
   NREBOOT  =      0    no. of reboots
   NMIN     =      0    reboot dimension
   EREF     =   0.00    reference energy to select bands
   IMIX   =      4    mixing-type and parameters
     AMIX     =   0.40;   BMIX     =  1.00
     AMIX_MAG =   1.60;   BMIX_MAG =  1.00
     AMIN     =   0.10
     WC   =   100.;   INIMIX=   1;  MIXPRE=   1;  MAXMIX=  40

 Intra band minimization:
   WEIMIN = 0.0010     energy-eigenvalue tresh-hold
   EBREAK =  0.21E-07  absolut break condition
   DEPER  =   0.30     relativ break condition  

   TIME   =   0.40     timestep for ELM

  volume/ion in A,a.u.               =      28.37       191.48
  Fermi-wavevector in a.u.,A,eV,Ry     =   0.852028  1.610099  9.877168  0.725951
  Thomas-Fermi vector in A             =   1.968252

 Write flags
   LWAVE  =      F    write WAVECAR
   LCHARG =      F    write CHGCAR
   LVTOT  =      F    write LOCPOT, total local potential
   LVHAR  =      F    write LOCPOT, Hartree potential only
   LELF   =      F    write electronic localiz. function (ELF)
   LORBIT =      0    0 simple, 1 ext, 2 COOP (PROOUT)


 Dipole corrections
   LMONO  =      F    monopole corrections only (constant potential shift)
   LDIPOL =      F    correct potential (dipole corrections)
   IDIPOL =      0    1-x, 2-y, 3-z, 4-all directions 
   EPSILON=  1.0000000 bulk dielectric constant

 Exchange correlation treatment:
   GGA     =    91    GGA type
   LEXCH   =     7    internal setting for exchange type
   VOSKOWN=      0    Vosko Wilk Nusair interpolation
   LHFCALC =     F    Hartree Fock is set to
   LHFONE  =     F    Hartree Fock one center treatment
   AEXX    =    0.0000 exact exchange contribution

 Linear response parameters
   LEPSILON=     F    determine dielectric tensor
   LRPA    =     F    only Hartree local field effects (RPA)
   LNABLA  =     F    use nabla operator in PAW spheres
   LVEL    =     F    velocity operator in full k-point grid
   LINTERFAST=   F  fast interpolation
   KINTER  =     0    interpolate to denser k-point grid
   CSHIFT  =0.1000    complex shift for real part using Kramers Kronig
   OMEGAMAX=  -1.0    maximum frequency
   DEG_THRESHOLD= 0.2000000E-02 threshold for treating states as degnerate
   RTIME   =    0.100 relaxation time in fs

 Orbital magnetization related:
   ORBITALMAG=     F  switch on orbital magnetization
   LCHIMAG   =     F  perturbation theory with respect to B field
   DQ        =  0.001000  dq finite difference perturbation B field



--------------------------------------------------------------------------------------------------------


 conjugate gradient relaxation of ions
 charge density and potential will be updated during run
 non-spin polarized calculation
 RMM-DIIS sequential band-by-band and
  variant of blocked Davidson during initial phase
 perform sub-space diagonalisation
    before iterative eigenvector-optimisation
 modified Broyden-mixing scheme, WC =      100.0
 initial mixing is a Kerker type mixing with AMIX =  0.4000 and BMIX =      1.0000
 Hartree-type preconditioning will be used
 using additional bands            4
 reciprocal scheme for non local part
 use partial core corrections
 calculate Harris-corrections to forces   (improved forces if not selfconsistent)
 use gradient corrections 
 use of overlap-Matrix (Vanderbilt PP)
 Fermi-smearing in eV        SIGMA  =   0.03


--------------------------------------------------------------------------------------------------------


  energy-cutoff  :      300.00
  volume of cell :      113.50
      direct lattice vectors                 reciprocal lattice vectors
     5.944297140  0.000000000  0.000000000     0.168228468  0.000000000 -0.000000000
     0.000000000  5.944297140  0.000000000    -0.000000000  0.168228468  0.000000000
     0.000000000 -0.000000000  3.212048919     0.000000000  0.000000000  0.311327762

  length of vectors
     5.944297140  5.944297140  3.212048919     0.168228468  0.168228468  0.311327762



 k-points in units of 2pi/SCALE and weight: Automatic                               
   0.00000000  0.00000000  0.00000000       0.000
   0.01401904  0.00000000  0.00000000       0.002
   0.02803808  0.00000000  0.00000000       0.002
   0.04205712  0.00000000  0.00000000       0.002
   0.05607616  0.00000000  0.00000000       0.002
   0.07009519  0.00000000  0.00000000       0.002
   0.08411423  0.00000000  0.00000000       0.001
   0.01401904  0.01401904  0.00000000       0.002
   0.02803808  0.01401904  0.00000000       0.003
   0.04205712  0.01401904  0.00000000       0.003
   0.05607616  0.01401904  0.00000000       0.003
   0.07009519  0.01401904  0.00000000       0.003
   0.08411423  0.01401904  0.00000000       0.002
   0.02803808  0.02803808  0.00000000       0.002
   0.04205712  0.02803808  0.00000000       0.003
   0.05607616  0.02803808  0.00000000       0.003
   0.07009519  0.02803808  0.00000000       0.003
   0.08411423  0.02803808  0.00000000       0.002
   0.04205712  0.04205712  0.00000000       0.002
   0.05607616  0.04205712  0.00000000       0.003
   0.07009519  0.04205712  0.00000000       0.003
   0.08411423  0.04205712  0.00000000       0.002
   0.05607616  0.05607616  0.00000000       0.002
   0.07009519  0.05607616  0.00000000       0.003
   0.08411423  0.05607616  0.00000000       0.002
   0.07009519  0.07009519  0.00000000       0.002
   0.08411423  0.07009519  0.00000000       0.002
   0.08411423  0.08411423  0.00000000       0.000
   0.00000000  0.00000000  0.01945799       0.001
   0.01401904  0.00000000  0.01945799       0.003
   0.02803808  0.00000000  0.01945799       0.003
   0.04205712  0.00000000  0.01945799       0.003
   0.05607616  0.00000000  0.01945799       0.003
   0.07009519  0.00000000  0.01945799       0.003
   0.08411423  0.00000000  0.01945799       0.002
   0.01401904  0.01401904  0.01945799       0.003
   0.02803808  0.01401904  0.01945799       0.007
   0.04205712  0.01401904  0.01945799       0.007
   0.05607616  0.01401904  0.01945799       0.007
   0.07009519  0.01401904  0.01945799       0.007
   0.08411423  0.01401904  0.01945799       0.003
   0.02803808  0.02803808  0.01945799       0.003
   0.04205712  0.02803808  0.01945799       0.007
   0.05607616  0.02803808  0.01945799       0.007
   0.07009519  0.02803808  0.01945799       0.007
   0.08411423  0.02803808  0.01945799       0.003
   0.04205712  0.04205712  0.01945799       0.003
   0.05607616  0.04205712  0.01945799       0.007
   0.07009519  0.04205712  0.01945799       0.007
   0.08411423  0.04205712  0.01945799       0.003
   0.05607616  0.05607616  0.01945799       0.003
   0.07009519  0.05607616  0.01945799       0.007
   0.08411423  0.05607616  0.01945799       0.003
   0.07009519  0.07009519  0.01945799       0.003
   0.08411423  0.07009519  0.01945799       0.003
   0.08411423  0.08411423  0.01945799       0.001
   0.00000000  0.00000000  0.03891597       0.001
   0.01401904  0.00000000  0.03891597       0.003
   0.02803808  0.00000000  0.03891597       0.003
   0.04205712  0.00000000  0.03891597       0.003
   0.05607616  0.00000000  0.03891597       0.003
   0.07009519  0.00000000  0.03891597       0.003
   0.08411423  0.00000000  0.03891597       0.002
   0.01401904  0.01401904  0.03891597       0.003
   0.02803808  0.01401904  0.03891597       0.007
   0.04205712  0.01401904  0.03891597       0.007
   0.05607616  0.01401904  0.03891597       0.007
   0.07009519  0.01401904  0.03891597       0.007
   0.08411423  0.01401904  0.03891597       0.003
   0.02803808  0.02803808  0.03891597       0.003
   0.04205712  0.02803808  0.03891597       0.007
   0.05607616  0.02803808  0.03891597       0.007
   0.07009519  0.02803808  0.03891597       0.007
   0.08411423  0.02803808  0.03891597       0.003
   0.04205712  0.04205712  0.03891597       0.003
   0.05607616  0.04205712  0.03891597       0.007
   0.07009519  0.04205712  0.03891597       0.007
   0.08411423  0.04205712  0.03891597       0.003
   0.05607616  0.05607616  0.03891597       0.003
   0.07009519  0.05607616  0.03891597       0.007
   0.08411423  0.05607616  0.03891597       0.003
   0.07009519  0.07009519  0.03891597       0.003
   0.08411423  0.07009519  0.03891597       0.003
   0.08411423  0.08411423  0.03891597       0.001
   0.00000000  0.00000000  0.05837396       0.001
   0.01401904  0.00000000  0.05837396       0.003
   0.02803808  0.00000000  0.05837396       0.003
   0.04205712  0.00000000  0.05837396       0.003
   0.05607616  0.00000000  0.05837396       0.003
   0.07009519  0.00000000  0.05837396       0.003
   0.08411423  0.00000000  0.05837396       0.002
   0.01401904  0.01401904  0.05837396       0.003
   0.02803808  0.01401904  0.05837396       0.007
   0.04205712  0.01401904  0.05837396       0.007
   0.05607616  0.01401904  0.05837396       0.007
   0.07009519  0.01401904  0.05837396       0.007
   0.08411423  0.01401904  0.05837396       0.003
   0.02803808  0.02803808  0.05837396       0.003
   0.04205712  0.02803808  0.05837396       0.007
   0.05607616  0.02803808  0.05837396       0.007
   0.07009519  0.02803808  0.05837396       0.007
   0.08411423  0.02803808  0.05837396       0.003
   0.04205712  0.04205712  0.05837396       0.003
   0.05607616  0.04205712  0.05837396       0.007
   0.07009519  0.04205712  0.05837396       0.007
   0.08411423  0.04205712  0.05837396       0.003
   0.05607616  0.05607616  0.05837396       0.003
   0.07009519  0.05607616  0.05837396       0.007
   0.08411423  0.05607616  0.05837396       0.003
   0.07009519  0.07009519  0.05837396       0.003
   0.08411423  0.07009519  0.05837396       0.003
   0.08411423  0.08411423  0.05837396       0.001
   0.00000000  0.00000000  0.07783194       0.001
   0.01401904  0.00000000  0.07783194       0.003
   0.02803808  0.00000000  0.07783194       0.003
   0.04205712  0.00000000  0.07783194       0.003
   0.05607616  0.00000000  0.07783194       0.003
   0.07009519  0.00000000  0.07783194       0.003
   0.08411423  0.00000000  0.07783194       0.002
   0.01401904  0.01401904  0.07783194       0.003
   0.02803808  0.01401904  0.07783194       0.007
   0.04205712  0.01401904  0.07783194       0.007
   0.05607616  0.01401904  0.07783194       0.007
   0.07009519  0.01401904  0.07783194       0.007
   0.08411423  0.01401904  0.07783194       0.003
   0.02803808  0.02803808  0.07783194       0.003
   0.04205712  0.02803808  0.07783194       0.007
   0.05607616  0.02803808  0.07783194       0.007
   0.07009519  0.02803808  0.07783194       0.007
   0.08411423  0.02803808  0.07783194       0.003
   0.04205712  0.04205712  0.07783194       0.003
   0.05607616  0.04205712  0.07783194       0.007
   0.07009519  0.04205712  0.07783194       0.007
   0.08411423  0.04205712  0.07783194       0.003
   0.05607616  0.05607616  0.07783194       0.003
   0.07009519  0.05607616  0.07783194       0.007
   0.08411423  0.05607616  0.07783194       0.003
   0.07009519  0.07009519  0.07783194       0.003
   0.08411423  0.07009519  0.07783194       0.003
   0.08411423  0.08411423  0.07783194       0.001
   0.00000000  0.00000000  0.09728993       0.001
   0.01401904  0.00000000  0.09728993       0.003
   0.02803808  0.00000000  0.09728993       0.003
   0.04205712  0.00000000  0.09728993       0.003
   0.05607616  0.00000000  0.09728993       0.003
   0.07009519  0.00000000  0.09728993       0.003
   0.08411423  0.00000000  0.09728993       0.002
   0.01401904  0.01401904  0.09728993       0.003
   0.02803808  0.01401904  0.09728993       0.007
   0.04205712  0.01401904  0.09728993       0.007
   0.05607616  0.01401904  0.09728993       0.007
   0.07009519  0.01401904  0.09728993       0.007
   0.08411423  0.01401904  0.09728993       0.003
   0.02803808  0.02803808  0.09728993       0.003
   0.04205712  0.02803808  0.09728993       0.007
   0.05607616  0.02803808  0.09728993       0.007
   0.07009519  0.02803808  0.09728993       0.007
   0.08411423  0.02803808  0.09728993       0.003
   0.04205712  0.04205712  0.09728993       0.003
   0.05607616  0.04205712  0.09728993       0.007
   0.07009519  0.04205712  0.09728993       0.007
   0.08411423  0.04205712  0.09728993       0.003
   0.05607616  0.05607616  0.09728993       0.003
   0.07009519  0.05607616  0.09728993       0.007
   0.08411423  0.05607616  0.09728993       0.003
   0.07009519  0.07009519  0.09728993       0.003
   0.08411423  0.07009519  0.09728993       0.003
   0.08411423  0.08411423  0.09728993       0.001
   0.00000000  0.00000000  0.11674791       0.001
   0.01401904  0.00000000  0.11674791       0.003
   0.02803808  0.00000000  0.11674791       0.003
   0.04205712  0.00000000  0.11674791       0.003
   0.05607616  0.00000000  0.11674791       0.003
   0.07009519  0.00000000  0.11674791       0.003
   0.08411423  0.00000000  0.11674791       0.002
   0.01401904  0.01401904  0.11674791       0.003
   0.02803808  0.01401904  0.11674791       0.007
   0.04205712  0.01401904  0.11674791       0.007
   0.05607616  0.01401904  0.11674791       0.007
   0.07009519  0.01401904  0.11674791       0.007
   0.08411423  0.01401904  0.11674791       0.003
   0.02803808  0.02803808  0.11674791       0.003
   0.04205712  0.02803808  0.11674791       0.007
   0.05607616  0.02803808  0.11674791       0.007
   0.07009519  0.02803808  0.11674791       0.007
   0.08411423  0.02803808  0.11674791       0.003
   0.04205712  0.04205712  0.11674791       0.003
   0.05607616  0.04205712  0.11674791       0.007
   0.07009519  0.04205712  0.11674791       0.007
   0.08411423  0.04205712  0.11674791       0.003
   0.05607616  0.05607616  0.11674791       0.003
   0.07009519  0.05607616  0.11674791       0.007
   0.08411423  0.05607616  0.11674791       0.003
   0.07009519  0.07009519  0.11674791       0.003
   0.08411423  0.07009519  0.11674791       0.003
   0.08411423  0.08411423  0.11674791       0.001
   0.00000000  0.00000000  0.13620590       0.001
   0.01401904  0.00000000  0.13620590       0.003
   0.02803808  0.00000000  0.13620590       0.003
   0.04205712  0.00000000  0.13620590       0.003
   0.05607616  0.00000000  0.13620590       0.003
   0.07009519  0.00000000  0.13620590       0.003
   0.08411423  0.00000000  0.13620590       0.002
   0.01401904  0.01401904  0.13620590       0.003
   0.02803808  0.01401904  0.13620590       0.007
   0.04205712  0.01401904  0.13620590       0.007
   0.05607616  0.01401904  0.13620590       0.007
   0.07009519  0.01401904  0.13620590       0.007
   0.08411423  0.01401904  0.13620590       0.003
   0.02803808  0.02803808  0.13620590       0.003
   0.04205712  0.02803808  0.13620590       0.007
   0.05607616  0.02803808  0.13620590       0.007
   0.07009519  0.02803808  0.13620590       0.007
   0.08411423  0.02803808  0.13620590       0.003
   0.04205712  0.04205712  0.13620590       0.003
   0.05607616  0.04205712  0.13620590       0.007
   0.07009519  0.04205712  0.13620590       0.007
   0.08411423  0.04205712  0.13620590       0.003
   0.05607616  0.05607616  0.13620590       0.003
   0.07009519  0.05607616  0.13620590       0.007
   0.08411423  0.05607616  0.13620590       0.003
   0.07009519  0.07009519  0.13620590       0.003
   0.08411423  0.07009519  0.13620590       0.003
   0.08411423  0.08411423  0.13620590       0.001
   0.00000000  0.00000000  0.15566388       0.000
   0.01401904  0.00000000  0.15566388       0.002
   0.02803808  0.00000000  0.15566388       0.002
   0.04205712  0.00000000  0.15566388       0.002
   0.05607616  0.00000000  0.15566388       0.002
   0.07009519  0.00000000  0.15566388       0.002
   0.08411423  0.00000000  0.15566388       0.001
   0.01401904  0.01401904  0.15566388       0.002
   0.02803808  0.01401904  0.15566388       0.003
   0.04205712  0.01401904  0.15566388       0.003
   0.05607616  0.01401904  0.15566388       0.003
   0.07009519  0.01401904  0.15566388       0.003
   0.08411423  0.01401904  0.15566388       0.002
   0.02803808  0.02803808  0.15566388       0.002
   0.04205712  0.02803808  0.15566388       0.003
   0.05607616  0.02803808  0.15566388       0.003
   0.07009519  0.02803808  0.15566388       0.003
   0.08411423  0.02803808  0.15566388       0.002
   0.04205712  0.04205712  0.15566388       0.002
   0.05607616  0.04205712  0.15566388       0.003
   0.07009519  0.04205712  0.15566388       0.003
   0.08411423  0.04205712  0.15566388       0.002
   0.05607616  0.05607616  0.15566388       0.002
   0.07009519  0.05607616  0.15566388       0.003
   0.08411423  0.05607616  0.15566388       0.002
   0.07009519  0.07009519  0.15566388       0.002
   0.08411423  0.07009519  0.15566388       0.002
   0.08411423  0.08411423  0.15566388       0.000

 k-points in reciprocal lattice and weights: Automatic                               
   0.00000000  0.00000000  0.00000000       0.000
   0.08333333  0.00000000  0.00000000       0.002
   0.16666667  0.00000000  0.00000000       0.002
   0.25000000  0.00000000  0.00000000       0.002
   0.33333333  0.00000000  0.00000000       0.002
   0.41666667  0.00000000  0.00000000       0.002
   0.50000000  0.00000000  0.00000000       0.001
   0.08333333  0.08333333  0.00000000       0.002
   0.16666667  0.08333333  0.00000000       0.003
   0.25000000  0.08333333  0.00000000       0.003
   0.33333333  0.08333333  0.00000000       0.003
   0.41666667  0.08333333  0.00000000       0.003
   0.50000000  0.08333333  0.00000000       0.002
   0.16666667  0.16666667  0.00000000       0.002
   0.25000000  0.16666667  0.00000000       0.003
   0.33333333  0.16666667  0.00000000       0.003
   0.41666667  0.16666667  0.00000000       0.003
   0.50000000  0.16666667  0.00000000       0.002
   0.25000000  0.25000000  0.00000000       0.002
   0.33333333  0.25000000  0.00000000       0.003
   0.41666667  0.25000000  0.00000000       0.003
   0.50000000  0.25000000  0.00000000       0.002
   0.33333333  0.33333333  0.00000000       0.002
   0.41666667  0.33333333  0.00000000       0.003
   0.50000000  0.33333333  0.00000000       0.002
   0.41666667  0.41666667  0.00000000       0.002
   0.50000000  0.41666667  0.00000000       0.002
   0.50000000  0.50000000  0.00000000       0.000
   0.00000000  0.00000000  0.06250000       0.001
   0.08333333  0.00000000  0.06250000       0.003
   0.16666667  0.00000000  0.06250000       0.003
   0.25000000  0.00000000  0.06250000       0.003
   0.33333333  0.00000000  0.06250000       0.003
   0.41666667  0.00000000  0.06250000       0.003
   0.50000000  0.00000000  0.06250000       0.002
   0.08333333  0.08333333  0.06250000       0.003
   0.16666667  0.08333333  0.06250000       0.007
   0.25000000  0.08333333  0.06250000       0.007
   0.33333333  0.08333333  0.06250000       0.007
   0.41666667  0.08333333  0.06250000       0.007
   0.50000000  0.08333333  0.06250000       0.003
   0.16666667  0.16666667  0.06250000       0.003
   0.25000000  0.16666667  0.06250000       0.007
   0.33333333  0.16666667  0.06250000       0.007
   0.41666667  0.16666667  0.06250000       0.007
   0.50000000  0.16666667  0.06250000       0.003
   0.25000000  0.25000000  0.06250000       0.003
   0.33333333  0.25000000  0.06250000       0.007
   0.41666667  0.25000000  0.06250000       0.007
   0.50000000  0.25000000  0.06250000       0.003
   0.33333333  0.33333333  0.06250000       0.003
   0.41666667  0.33333333  0.06250000       0.007
   0.50000000  0.33333333  0.06250000       0.003
   0.41666667  0.41666667  0.06250000       0.003
   0.50000000  0.41666667  0.06250000       0.003
   0.50000000  0.50000000  0.06250000       0.001
   0.00000000  0.00000000  0.12500000       0.001
   0.08333333  0.00000000  0.12500000       0.003
   0.16666667  0.00000000  0.12500000       0.003
   0.25000000  0.00000000  0.12500000       0.003
   0.33333333  0.00000000  0.12500000       0.003
   0.41666667  0.00000000  0.12500000       0.003
   0.50000000  0.00000000  0.12500000       0.002
   0.08333333  0.08333333  0.12500000       0.003
   0.16666667  0.08333333  0.12500000       0.007
   0.25000000  0.08333333  0.12500000       0.007
   0.33333333  0.08333333  0.12500000       0.007
   0.41666667  0.08333333  0.12500000       0.007
   0.50000000  0.08333333  0.12500000       0.003
   0.16666667  0.16666667  0.12500000       0.003
   0.25000000  0.16666667  0.12500000       0.007
   0.33333333  0.16666667  0.12500000       0.007
   0.41666667  0.16666667  0.12500000       0.007
   0.50000000  0.16666667  0.12500000       0.003
   0.25000000  0.25000000  0.12500000       0.003
   0.33333333  0.25000000  0.12500000       0.007
   0.41666667  0.25000000  0.12500000       0.007
   0.50000000  0.25000000  0.12500000       0.003
   0.33333333  0.33333333  0.12500000       0.003
   0.41666667  0.33333333  0.12500000       0.007
   0.50000000  0.33333333  0.12500000       0.003
   0.41666667  0.41666667  0.12500000       0.003
   0.50000000  0.41666667  0.12500000       0.003
   0.50000000  0.50000000  0.12500000       0.001
   0.00000000  0.00000000  0.18750000       0.001
   0.08333333  0.00000000  0.18750000       0.003
   0.16666667  0.00000000  0.18750000       0.003
   0.25000000  0.00000000  0.18750000       0.003
   0.33333333  0.00000000  0.18750000       0.003
   0.41666667  0.00000000  0.18750000       0.003
   0.50000000  0.00000000  0.18750000       0.002
   0.08333333  0.08333333  0.18750000       0.003
   0.16666667  0.08333333  0.18750000       0.007
   0.25000000  0.08333333  0.18750000       0.007
   0.33333333  0.08333333  0.18750000       0.007
   0.41666667  0.08333333  0.18750000       0.007
   0.50000000  0.08333333  0.18750000       0.003
   0.16666667  0.16666667  0.18750000       0.003
   0.25000000  0.16666667  0.18750000       0.007
   0.33333333  0.16666667  0.18750000       0.007
   0.41666667  0.16666667  0.18750000       0.007
   0.50000000  0.16666667  0.18750000       0.003
   0.25000000  0.25000000  0.18750000       0.003
   0.33333333  0.25000000  0.18750000       0.007
   0.41666667  0.25000000  0.18750000       0.007
   0.50000000  0.25000000  0.18750000       0.003
   0.33333333  0.33333333  0.18750000       0.003
   0.41666667  0.33333333  0.18750000       0.007
   0.50000000  0.33333333  0.18750000       0.003
   0.41666667  0.41666667  0.18750000       0.003
   0.50000000  0.41666667  0.18750000       0.003
   0.50000000  0.50000000  0.18750000       0.001
   0.00000000  0.00000000  0.25000000       0.001
   0.08333333  0.00000000  0.25000000       0.003
   0.16666667  0.00000000  0.25000000       0.003
   0.25000000  0.00000000  0.25000000       0.003
   0.33333333  0.00000000  0.25000000       0.003
   0.41666667  0.00000000  0.25000000       0.003
   0.50000000  0.00000000  0.25000000       0.002
   0.08333333  0.08333333  0.25000000       0.003
   0.16666667  0.08333333  0.25000000       0.007
   0.25000000  0.08333333  0.25000000       0.007
   0.33333333  0.08333333  0.25000000       0.007
   0.41666667  0.08333333  0.25000000       0.007
   0.50000000  0.08333333  0.25000000       0.003
   0.16666667  0.16666667  0.25000000       0.003
   0.25000000  0.16666667  0.25000000       0.007
   0.33333333  0.16666667  0.25000000       0.007
   0.41666667  0.16666667  0.25000000       0.007
   0.50000000  0.16666667  0.25000000       0.003
   0.25000000  0.25000000  0.25000000       0.003
   0.33333333  0.25000000  0.25000000       0.007
   0.41666667  0.25000000  0.25000000       0.007
   0.50000000  0.25000000  0.25000000       0.003
   0.33333333  0.33333333  0.25000000       0.003
   0.41666667  0.33333333  0.25000000       0.007
   0.50000000  0.33333333  0.25000000       0.003
   0.41666667  0.41666667  0.25000000       0.003
   0.50000000  0.41666667  0.25000000       0.003
   0.50000000  0.50000000  0.25000000       0.001
   0.00000000  0.00000000  0.31250000       0.001
   0.08333333  0.00000000  0.31250000       0.003
   0.16666667  0.00000000  0.31250000       0.003
   0.25000000  0.00000000  0.31250000       0.003
   0.33333333  0.00000000  0.31250000       0.003
   0.41666667  0.00000000  0.31250000       0.003
   0.50000000  0.00000000  0.31250000       0.002
   0.08333333  0.08333333  0.31250000       0.003
   0.16666667  0.08333333  0.31250000       0.007
   0.25000000  0.08333333  0.31250000       0.007
   0.33333333  0.08333333  0.31250000       0.007
   0.41666667  0.08333333  0.31250000       0.007
   0.50000000  0.08333333  0.31250000       0.003
   0.16666667  0.16666667  0.31250000       0.003
   0.25000000  0.16666667  0.31250000       0.007
   0.33333333  0.16666667  0.31250000       0.007
   0.41666667  0.16666667  0.31250000       0.007
   0.50000000  0.16666667  0.31250000       0.003
   0.25000000  0.25000000  0.31250000       0.003
   0.33333333  0.25000000  0.31250000       0.007
   0.41666667  0.25000000  0.31250000       0.007
   0.50000000  0.25000000  0.31250000       0.003
   0.33333333  0.33333333  0.31250000       0.003
   0.41666667  0.33333333  0.31250000       0.007
   0.50000000  0.33333333  0.31250000       0.003
   0.41666667  0.41666667  0.31250000       0.003
   0.50000000  0.41666667  0.31250000       0.003
   0.50000000  0.50000000  0.31250000       0.001
   0.00000000  0.00000000  0.37500000       0.001
   0.08333333  0.00000000  0.37500000       0.003
   0.16666667  0.00000000  0.37500000       0.003
   0.25000000  0.00000000  0.37500000       0.003
   0.33333333  0.00000000  0.37500000       0.003
   0.41666667  0.00000000  0.37500000       0.003
   0.50000000  0.00000000  0.37500000       0.002
   0.08333333  0.08333333  0.37500000       0.003
   0.16666667  0.08333333  0.37500000       0.007
   0.25000000  0.08333333  0.37500000       0.007
   0.33333333  0.08333333  0.37500000       0.007
   0.41666667  0.08333333  0.37500000       0.007
   0.50000000  0.08333333  0.37500000       0.003
   0.16666667  0.16666667  0.37500000       0.003
   0.25000000  0.16666667  0.37500000       0.007
   0.33333333  0.16666667  0.37500000       0.007
   0.41666667  0.16666667  0.37500000       0.007
   0.50000000  0.16666667  0.37500000       0.003
   0.25000000  0.25000000  0.37500000       0.003
   0.33333333  0.25000000  0.37500000       0.007
   0.41666667  0.25000000  0.37500000       0.007
   0.50000000  0.25000000  0.37500000       0.003
   0.33333333  0.33333333  0.37500000       0.003
   0.41666667  0.33333333  0.37500000       0.007
   0.50000000  0.33333333  0.37500000       0.003
   0.41666667  0.41666667  0.37500000       0.003
   0.50000000  0.41666667  0.37500000       0.003
   0.50000000  0.50000000  0.37500000       0.001
   0.00000000  0.00000000  0.43750000       0.001
   0.08333333  0.00000000  0.43750000       0.003
   0.16666667  0.00000000  0.43750000       0.003
   0.25000000  0.00000000  0.43750000       0.003
   0.33333333  0.00000000  0.43750000       0.003
   0.41666667  0.00000000  0.43750000       0.003
   0.50000000  0.00000000  0.43750000       0.002
   0.08333333  0.08333333  0.43750000       0.003
   0.16666667  0.08333333  0.43750000       0.007
   0.25000000  0.08333333  0.43750000       0.007
   0.33333333  0.08333333  0.43750000       0.007
   0.41666667  0.08333333  0.43750000       0.007
   0.50000000  0.08333333  0.43750000       0.003
   0.16666667  0.16666667  0.43750000       0.003
   0.25000000  0.16666667  0.43750000       0.007
   0.33333333  0.16666667  0.43750000       0.007
   0.41666667  0.16666667  0.43750000       0.007
   0.50000000  0.16666667  0.43750000       0.003
   0.25000000  0.25000000  0.43750000       0.003
   0.33333333  0.25000000  0.43750000       0.007
   0.41666667  0.25000000  0.43750000       0.007
   0.50000000  0.25000000  0.43750000       0.003
   0.33333333  0.33333333  0.43750000       0.003
   0.41666667  0.33333333  0.43750000       0.007
   0.50000000  0.33333333  0.43750000       0.003
   0.41666667  0.41666667  0.43750000       0.003
   0.50000000  0.41666667  0.43750000       0.003
   0.50000000  0.50000000  0.43750000       0.001
   0.00000000  0.00000000  0.50000000       0.000
   0.08333333  0.00000000  0.50000000       0.002
   0.16666667  0.00000000  0.50000000       0.002
   0.25000000  0.00000000  0.50000000       0.002
   0.33333333  0.00000000  0.50000000       0.002
   0.41666667  0.00000000  0.50000000       0.002
   0.50000000  0.00000000  0.50000000       0.001
   0.08333333  0.08333333  0.50000000       0.002
   0.16666667  0.08333333  0.50000000       0.003
   0.25000000  0.08333333  0.50000000       0.003
   0.33333333  0.08333333  0.50000000       0.003
   0.41666667  0.08333333  0.50000000       0.003
   0.50000000  0.08333333  0.50000000       0.002
   0.16666667  0.16666667  0.50000000       0.002
   0.25000000  0.16666667  0.50000000       0.003
   0.33333333  0.16666667  0.50000000       0.003
   0.41666667  0.16666667  0.50000000       0.003
   0.50000000  0.16666667  0.50000000       0.002
   0.25000000  0.25000000  0.50000000       0.002
   0.33333333  0.25000000  0.50000000       0.003
   0.41666667  0.25000000  0.50000000       0.003
   0.50000000  0.25000000  0.50000000       0.002
   0.33333333  0.33333333  0.50000000       0.002
   0.41666667  0.33333333  0.50000000       0.003
   0.50000000  0.33333333  0.50000000       0.002
   0.41666667  0.41666667  0.50000000       0.002
   0.50000000  0.41666667  0.50000000       0.002
   0.50000000  0.50000000  0.50000000       0.000

 position of ions in fractional coordinates (direct lattice) 
   0.00000000  0.00000000  0.50000000
   0.50000000  0.00000000  0.75000000
   0.50000000  0.50000000  0.00000000
   0.00000000  0.50000000  0.25000000

 position of ions in cartesian coordinates  (Angst):
   0.00000000  0.00000000  1.60602446
   2.97214857  0.00000000  2.40903669
   2.97214857  2.97214857  0.00000000
   0.00000000  2.97214857  0.80301223



--------------------------------------------------------------------------------------------------------


 k-point  1 :   0.0000 0.0000 0.0000  plane waves:    1333
 k-point  2 :   0.0833 0.0000 0.0000  plane waves:    1343
 k-point  3 :   0.1667 0.0000 0.0000  plane waves:    1349
 k-point  4 :   0.2500 0.0000 0.0000  plane waves:    1351
 k-point  5 :   0.3333 0.0000 0.0000  plane waves:    1351
 k-point  6 :   0.4167 0.0000 0.0000  plane waves:    1356
 k-point  7 :   0.5000 0.0000 0.0000  plane waves:    1360
 k-point  8 :   0.0833 0.0833 0.0000  plane waves:    1362
 k-point  9 :   0.1667 0.0833 0.0000  plane waves:    1354
 k-point 10 :   0.2500 0.0833 0.0000  plane waves:    1352
 k-point 11 :   0.3333 0.0833 0.0000  plane waves:    1349
 k-point 12 :   0.4167 0.0833 0.0000  plane waves:    1352
 k-point 13 :   0.5000 0.0833 0.0000  plane waves:    1346
 k-point 14 :   0.1667 0.1667 0.0000  plane waves:    1360
 k-point 15 :   0.2500 0.1667 0.0000  plane waves:    1356
 k-point 16 :   0.3333 0.1667 0.0000  plane waves:    1347
 k-point 17 :   0.4167 0.1667 0.0000  plane waves:    1343
 k-point 18 :   0.5000 0.1667 0.0000  plane waves:    1340
 k-point 19 :   0.2500 0.2500 0.0000  plane waves:    1352
 k-point 20 :   0.3333 0.2500 0.0000  plane waves:    1338
 k-point 21 :   0.4167 0.2500 0.0000  plane waves:    1339
 k-point 22 :   0.5000 0.2500 0.0000  plane waves:    1346
 k-point 23 :   0.3333 0.3333 0.0000  plane waves:    1342
 k-point 24 :   0.4167 0.3333 0.0000  plane waves:    1336
 k-point 25 :   0.5000 0.3333 0.0000  plane waves:    1342
 k-point 26 :   0.4167 0.4167 0.0000  plane waves:    1334
 k-point 27 :   0.5000 0.4167 0.0000  plane waves:    1332
 k-point 28 :   0.5000 0.5000 0.0000  plane waves:    1336
 k-point 29 :   0.0000 0.0000 0.0625  plane waves:    1353
 k-point 30 :   0.0833 0.0000 0.0625  plane waves:    1359
 k-point 31 :   0.1667 0.0000 0.0625  plane waves:    1360
 k-point 32 :   0.2500 0.0000 0.0625  plane waves:    1345
 k-point 33 :   0.3333 0.0000 0.0625  plane waves:    1344
 k-point 34 :   0.4167 0.0000 0.0625  plane waves:    1359
 k-point 35 :   0.5000 0.0000 0.0625  plane waves:    1362
 k-point 36 :   0.0833 0.0833 0.0625  plane waves:    1361
 k-point 37 :   0.1667 0.0833 0.0625  plane waves:    1350
 k-point 38 :   0.2500 0.0833 0.0625  plane waves:    1354
 k-point 39 :   0.3333 0.0833 0.0625  plane waves:    1354
 k-point 40 :   0.4167 0.0833 0.0625  plane waves:    1351
 k-point 41 :   0.5000 0.0833 0.0625  plane waves:    1352
 k-point 42 :   0.1667 0.1667 0.0625  plane waves:    1351
 k-point 43 :   0.2500 0.1667 0.0625  plane waves:    1347
 k-point 44 :   0.3333 0.1667 0.0625  plane waves:    1347
 k-point 45 :   0.4167 0.1667 0.0625  plane waves:    1342
 k-point 46 :   0.5000 0.1667 0.0625  plane waves:    1348
 k-point 47 :   0.2500 0.2500 0.0625  plane waves:    1343
 k-point 48 :   0.3333 0.2500 0.0625  plane waves:    1338
 k-point 49 :   0.4167 0.2500 0.0625  plane waves:    1339
 k-point 50 :   0.5000 0.2500 0.0625  plane waves:    1344
 k-point 51 :   0.3333 0.3333 0.0625  plane waves:    1346
 k-point 52 :   0.4167 0.3333 0.0625  plane waves:    1340
 k-point 53 :   0.5000 0.3333 0.0625  plane waves:    1336
 k-point 54 :   0.4167 0.4167 0.0625  plane waves:    1329
 k-point 55 :   0.5000 0.4167 0.0625  plane waves:    1328
 k-point 56 :   0.5000 0.5000 0.0625  plane waves:    1324
 k-point 57 :   0.0000 0.0000 0.1250  plane waves:    1365
 k-point 58 :   0.0833 0.0000 0.1250  plane waves:    1357
 k-point 59 :   0.1667 0.0000 0.1250  plane waves:    1355
 k-point 60 :   0.2500 0.0000 0.1250  plane waves:    1350
 k-point 61 :   0.3333 0.0000 0.1250  plane waves:    1356
 k-point 62 :   0.4167 0.0000 0.1250  plane waves:    1345
 k-point 63 :   0.5000 0.0000 0.1250  plane waves:    1340
 k-point 64 :   0.0833 0.0833 0.1250  plane waves:    1358
 k-point 65 :   0.1667 0.0833 0.1250  plane waves:    1356
 k-point 66 :   0.2500 0.0833 0.1250  plane waves:    1351
 k-point 67 :   0.3333 0.0833 0.1250  plane waves:    1350
 k-point 68 :   0.4167 0.0833 0.1250  plane waves:    1345
 k-point 69 :   0.5000 0.0833 0.1250  plane waves:    1342
 k-point 70 :   0.1667 0.1667 0.1250  plane waves:    1355
 k-point 71 :   0.2500 0.1667 0.1250  plane waves:    1348
 k-point 72 :   0.3333 0.1667 0.1250  plane waves:    1347
 k-point 73 :   0.4167 0.1667 0.1250  plane waves:    1343
 k-point 74 :   0.5000 0.1667 0.1250  plane waves:    1338
 k-point 75 :   0.2500 0.2500 0.1250  plane waves:    1344
 k-point 76 :   0.3333 0.2500 0.1250  plane waves:    1345
 k-point 77 :   0.4167 0.2500 0.1250  plane waves:    1339
 k-point 78 :   0.5000 0.2500 0.1250  plane waves:    1338
 k-point 79 :   0.3333 0.3333 0.1250  plane waves:    1339
 k-point 80 :   0.4167 0.3333 0.1250  plane waves:    1336
 k-point 81 :   0.5000 0.3333 0.1250  plane waves:    1332
 k-point 82 :   0.4167 0.4167 0.1250  plane waves:    1331
 k-point 83 :   0.5000 0.4167 0.1250  plane waves:    1328
 k-point 84 :   0.5000 0.5000 0.1250  plane waves:    1320
 k-point 85 :   0.0000 0.0000 0.1875  plane waves:    1369
 k-point 86 :   0.0833 0.0000 0.1875  plane waves:    1356
 k-point 87 :   0.1667 0.0000 0.1875  plane waves:    1357
 k-point 88 :   0.2500 0.0000 0.1875  plane waves:    1346
 k-point 89 :   0.3333 0.0000 0.1875  plane waves:    1340
 k-point 90 :   0.4167 0.0000 0.1875  plane waves:    1337
 k-point 91 :   0.5000 0.0000 0.1875  plane waves:    1340
 k-point 92 :   0.0833 0.0833 0.1875  plane waves:    1356
 k-point 93 :   0.1667 0.0833 0.1875  plane waves:    1350
 k-point 94 :   0.2500 0.0833 0.1875  plane waves:    1348
 k-point 95 :   0.3333 0.0833 0.1875  plane waves:    1345
 k-point 96 :   0.4167 0.0833 0.1875  plane waves:    1342
 k-point 97 :   0.5000 0.0833 0.1875  plane waves:    1340
 k-point 98 :   0.1667 0.1667 0.1875  plane waves:    1347
 k-point 99 :   0.2500 0.1667 0.1875  plane waves:    1347
 k-point ** :   0.3333 0.1667 0.1875  plane waves:    1340
 k-point ** :   0.4167 0.1667 0.1875  plane waves:    1345
 k-point ** :   0.5000 0.1667 0.1875  plane waves:    1344
 k-point ** :   0.2500 0.2500 0.1875  plane waves:    1336
 k-point ** :   0.3333 0.2500 0.1875  plane waves:    1339
 k-point ** :   0.4167 0.2500 0.1875  plane waves:    1341
 k-point ** :   0.5000 0.2500 0.1875  plane waves:    1346
 k-point ** :   0.3333 0.3333 0.1875  plane waves:    1348
 k-point ** :   0.4167 0.3333 0.1875  plane waves:    1337
 k-point ** :   0.5000 0.3333 0.1875  plane waves:    1342
 k-point ** :   0.4167 0.4167 0.1875  plane waves:    1335
 k-point ** :   0.5000 0.4167 0.1875  plane waves:    1338
 k-point ** :   0.5000 0.5000 0.1875  plane waves:    1336
 k-point ** :   0.0000 0.0000 0.2500  plane waves:    1357
 k-point ** :   0.0833 0.0000 0.2500  plane waves:    1343
 k-point ** :   0.1667 0.0000 0.2500  plane waves:    1338
 k-point ** :   0.2500 0.0000 0.2500  plane waves:    1340
 k-point ** :   0.3333 0.0000 0.2500  plane waves:    1339
 k-point ** :   0.4167 0.0000 0.2500  plane waves:    1342
 k-point ** :   0.5000 0.0000 0.2500  plane waves:    1340
 k-point ** :   0.0833 0.0833 0.2500  plane waves:    1341
 k-point ** :   0.1667 0.0833 0.2500  plane waves:    1340
 k-point ** :   0.2500 0.0833 0.2500  plane waves:    1340
 k-point ** :   0.3333 0.0833 0.2500  plane waves:    1338
 k-point ** :   0.4167 0.0833 0.2500  plane waves:    1338
 k-point ** :   0.5000 0.0833 0.2500  plane waves:    1340
 k-point ** :   0.1667 0.1667 0.2500  plane waves:    1342
 k-point ** :   0.2500 0.1667 0.2500  plane waves:    1338
 k-point ** :   0.3333 0.1667 0.2500  plane waves:    1343
 k-point ** :   0.4167 0.1667 0.2500  plane waves:    1343
 k-point ** :   0.5000 0.1667 0.2500  plane waves:    1346
 k-point ** :   0.2500 0.2500 0.2500  plane waves:    1338
 k-point ** :   0.3333 0.2500 0.2500  plane waves:    1343
 k-point ** :   0.4167 0.2500 0.2500  plane waves:    1342
 k-point ** :   0.5000 0.2500 0.2500  plane waves:    1342
 k-point ** :   0.3333 0.3333 0.2500  plane waves:    1342
 k-point ** :   0.4167 0.3333 0.2500  plane waves:    1342
 k-point ** :   0.5000 0.3333 0.2500  plane waves:    1342
 k-point ** :   0.4167 0.4167 0.2500  plane waves:    1343
 k-point ** :   0.5000 0.4167 0.2500  plane waves:    1346
 k-point ** :   0.5000 0.5000 0.2500  plane waves:    1352
 k-point ** :   0.0000 0.0000 0.3125  plane waves:    1329
 k-point ** :   0.0833 0.0000 0.3125  plane waves:    1332
 k-point ** :   0.1667 0.0000 0.3125  plane waves:    1331
 k-point ** :   0.2500 0.0000 0.3125  plane waves:    1338
 k-point ** :   0.3333 0.0000 0.3125  plane waves:    1346
 k-point ** :   0.4167 0.0000 0.3125  plane waves:    1344
 k-point ** :   0.5000 0.0000 0.3125  plane waves:    1336
 k-point ** :   0.0833 0.0833 0.3125  plane waves:    1333
 k-point ** :   0.1667 0.0833 0.3125  plane waves:    1332
 k-point ** :   0.2500 0.0833 0.3125  plane waves:    1337
 k-point ** :   0.3333 0.0833 0.3125  plane waves:    1339
 k-point ** :   0.4167 0.0833 0.3125  plane waves:    1341
 k-point ** :   0.5000 0.0833 0.3125  plane waves:    1336
 k-point ** :   0.1667 0.1667 0.3125  plane waves:    1334
 k-point ** :   0.2500 0.1667 0.3125  plane waves:    1338
 k-point ** :   0.3333 0.1667 0.3125  plane waves:    1344
 k-point ** :   0.4167 0.1667 0.3125  plane waves:    1341
 k-point ** :   0.5000 0.1667 0.3125  plane waves:    1338
 k-point ** :   0.2500 0.2500 0.3125  plane waves:    1339
 k-point ** :   0.3333 0.2500 0.3125  plane waves:    1337
 k-point ** :   0.4167 0.2500 0.3125  plane waves:    1339
 k-point ** :   0.5000 0.2500 0.3125  plane waves:    1334
 k-point ** :   0.3333 0.3333 0.3125  plane waves:    1342
 k-point ** :   0.4167 0.3333 0.3125  plane waves:    1334
 k-point ** :   0.5000 0.3333 0.3125  plane waves:    1334
 k-point ** :   0.4167 0.4167 0.3125  plane waves:    1338
 k-point ** :   0.5000 0.4167 0.3125  plane waves:    1342
 k-point ** :   0.5000 0.5000 0.3125  plane waves:    1356
 k-point ** :   0.0000 0.0000 0.3750  plane waves:    1325
 k-point ** :   0.0833 0.0000 0.3750  plane waves:    1327
 k-point ** :   0.1667 0.0000 0.3750  plane waves:    1328
 k-point ** :   0.2500 0.0000 0.3750  plane waves:    1333
 k-point ** :   0.3333 0.0000 0.3750  plane waves:    1332
 k-point ** :   0.4167 0.0000 0.3750  plane waves:    1332
 k-point ** :   0.5000 0.0000 0.3750  plane waves:    1338
 k-point ** :   0.0833 0.0833 0.3750  plane waves:    1333
 k-point ** :   0.1667 0.0833 0.3750  plane waves:    1329
 k-point ** :   0.2500 0.0833 0.3750  plane waves:    1333
 k-point ** :   0.3333 0.0833 0.3750  plane waves:    1338
 k-point ** :   0.4167 0.0833 0.3750  plane waves:    1337
 k-point ** :   0.5000 0.0833 0.3750  plane waves:    1340
 k-point ** :   0.1667 0.1667 0.3750  plane waves:    1334
 k-point ** :   0.2500 0.1667 0.3750  plane waves:    1335
 k-point ** :   0.3333 0.1667 0.3750  plane waves:    1331
 k-point ** :   0.4167 0.1667 0.3750  plane waves:    1335
 k-point ** :   0.5000 0.1667 0.3750  plane waves:    1334
 k-point ** :   0.2500 0.2500 0.3750  plane waves:    1336
 k-point ** :   0.3333 0.2500 0.3750  plane waves:    1336
 k-point ** :   0.4167 0.2500 0.3750  plane waves:    1332
 k-point ** :   0.5000 0.2500 0.3750  plane waves:    1332
 k-point ** :   0.3333 0.3333 0.3750  plane waves:    1332
 k-point ** :   0.4167 0.3333 0.3750  plane waves:    1335
 k-point ** :   0.5000 0.3333 0.3750  plane waves:    1330
 k-point ** :   0.4167 0.4167 0.3750  plane waves:    1329
 k-point ** :   0.5000 0.4167 0.3750  plane waves:    1334
 k-point ** :   0.5000 0.5000 0.3750  plane waves:    1336
 k-point ** :   0.0000 0.0000 0.4375  plane waves:    1329
 k-point ** :   0.0833 0.0000 0.4375  plane waves:    1324
 k-point ** :   0.1667 0.0000 0.4375  plane waves:    1321
 k-point ** :   0.2500 0.0000 0.4375  plane waves:    1332
 k-point ** :   0.3333 0.0000 0.4375  plane waves:    1326
 k-point ** :   0.4167 0.0000 0.4375  plane waves:    1325
 k-point ** :   0.5000 0.0000 0.4375  plane waves:    1324
 k-point ** :   0.0833 0.0833 0.4375  plane waves:    1320
 k-point ** :   0.1667 0.0833 0.4375  plane waves:    1323
 k-point ** :   0.2500 0.0833 0.4375  plane waves:    1331
 k-point ** :   0.3333 0.0833 0.4375  plane waves:    1330
 k-point ** :   0.4167 0.0833 0.4375  plane waves:    1331
 k-point ** :   0.5000 0.0833 0.4375  plane waves:    1328
 k-point ** :   0.1667 0.1667 0.4375  plane waves:    1330
 k-point ** :   0.2500 0.1667 0.4375  plane waves:    1332
 k-point ** :   0.3333 0.1667 0.4375  plane waves:    1331
 k-point ** :   0.4167 0.1667 0.4375  plane waves:    1331
 k-point ** :   0.5000 0.1667 0.4375  plane waves:    1332
 k-point ** :   0.2500 0.2500 0.4375  plane waves:    1331
 k-point ** :   0.3333 0.2500 0.4375  plane waves:    1329
 k-point ** :   0.4167 0.2500 0.4375  plane waves:    1326
 k-point ** :   0.5000 0.2500 0.4375  plane waves:    1328
 k-point ** :   0.3333 0.3333 0.4375  plane waves:    1328
 k-point ** :   0.4167 0.3333 0.4375  plane waves:    1326
 k-point ** :   0.5000 0.3333 0.4375  plane waves:    1324
 k-point ** :   0.4167 0.4167 0.4375  plane waves:    1329
[...]
      1      -2.0425      2.00000
      2      -2.0425      2.00000
      3      -0.3204      2.00000
      4      -0.3204      2.00000
      5       2.3510      2.00000
      6       2.3510      2.00000
      7       3.3312      2.00000
      8       3.3312      2.00000
      9       3.7585      2.00000
     10       3.7585      2.00000
     11       7.1524      0.00000
     12       7.1724      0.00000

 k-point   231 :       0.5000    0.0000    0.5000
  band No.  band energies     occupation 
      1      -1.9901      2.00000
      2      -1.9901      2.00000
      3      -0.4260      2.00000
      4      -0.4260      2.00000
      5       2.4598      2.00000
      6       2.4598      2.00000
      7       3.1750      2.00000
      8       3.1750      2.00000
      9       3.7729      2.00000
     10       3.7729      2.00000
     11       7.1326      0.00000
     12       7.1326      0.00000

 k-point   232 :       0.0833    0.0833    0.5000
  band No.  band energies     occupation 
      1      -2.4494      2.00000
      2      -2.4494      2.00000
      3       0.9433      2.00000
      4       0.9433      2.00000
      5       1.8747      2.00000
      6       1.8747      2.00000
      7       3.7617      2.00000
      8       3.7617      2.00000
      9       3.8842      2.00000
     10       3.8842      2.00000
     11       4.9365      0.00826
     12       4.9365      0.00826

 k-point   233 :       0.1667    0.0833    0.5000
  band No.  band energies     occupation 
      1      -2.3795      2.00000
      2      -2.3795      2.00000
      3       0.6908      2.00000
      4       0.6908      2.00000
      5       1.7776      2.00000
      6       1.7776      2.00000
      7       3.7916      2.00000
      8       3.7916      2.00000
      9       4.1980      2.00000
     10       4.1980      2.00000
     11       4.9390      0.00749
     12       4.9390      0.00749

 k-point   234 :       0.2500    0.0833    0.5000
  band No.  band energies     occupation 
      1      -2.2704      2.00000
      2      -2.2704      2.00000
      3       0.3212      2.00000
      4       0.3212      2.00000
      5       1.8206      2.00000
      6       1.8206      2.00000
      7       3.7099      2.00000
      8       3.7099      2.00000
      9       4.1503      2.00000
     10       4.1503      2.00000
     11       5.5095      0.00000
     12       5.5095      0.00000

 k-point   235 :       0.3333    0.0833    0.5000
  band No.  band energies     occupation 
      1      -2.1378      2.00000
      2      -2.1378      2.00000
      3      -0.0440      2.00000
      4      -0.0440      2.00000
      5       1.9530      2.00000
      6       1.9530      2.00000
      7       3.4672      2.00000
      8       3.4672      2.00000
      9       4.1051      2.00000
     10       4.1051      2.00000
     11       6.3129      0.00000
     12       6.3129      0.00000

 k-point   236 :       0.4167    0.0833    0.5000
  band No.  band energies     occupation 
      1      -2.0158      2.00000
      2      -2.0158      2.00000
      3      -0.3178      2.00000
      4      -0.3178      2.00000
      5       2.1129      2.00000
      6       2.1129      2.00000
      7       3.1976      2.00000
      8       3.1976      2.00000
      9       4.1155      2.00000
     10       4.1155      2.00000
     11       7.1180      0.00000
     12       7.1259      0.00000

 k-point   237 :       0.5000    0.0833    0.5000
  band No.  band energies     occupation 
      1      -1.9628      2.00000
      2      -1.9628      2.00000
      3      -0.4231      2.00000
      4      -0.4231      2.00000
      5       2.1976      2.00000
      6       2.1976      2.00000
      7       3.0715      2.00000
      8       3.0715      2.00000
      9       4.1240      2.00000
     10       4.1240      2.00000
     11       7.2807      0.00000
     12       7.2815      0.00000

 k-point   238 :       0.1667    0.1667    0.5000
  band No.  band energies     occupation 
      1      -2.3089      2.00000
      2      -2.3089      2.00000
      3       0.5542      2.00000
      4       0.5542      2.00000
      5       1.5552      2.00000
      6       1.5552      2.00000
      7       3.7656      2.00000
      8       3.7656      2.00000
      9       4.5638      1.99984
     10       4.5638      1.99984
     11       4.9698      0.00219
     12       4.9698      0.00219

 k-point   239 :       0.2500    0.1667    0.5000
  band No.  band energies     occupation 
      1      -2.1980      2.00000
      2      -2.1980      2.00000
      3       0.2722      2.00000
      4       0.2722      2.00000
      5       1.4979      2.00000
      6       1.4979      2.00000
      7       3.4990      2.00000
      8       3.4990      2.00000
      9       4.7361      1.85302
     10       4.7361      1.85302
     11       5.5354      0.00000
     12       5.5354      0.00000

 k-point   240 :       0.3333    0.1667    0.5000
  band No.  band energies     occupation 
      1      -2.0624      2.00000
      2      -2.0624      2.00000
      3      -0.0583      2.00000
      4      -0.0583      2.00000
      5       1.5767      2.00000
      6       1.5767      2.00000
      7       3.1832      2.00000
      8       3.1832      2.00000
      9       4.7829      1.31900
     10       4.7829      1.31900
     11       6.3561      0.00000
     12       6.3561      0.00000

 k-point   241 :       0.4167    0.1667    0.5000
  band No.  band energies     occupation 
      1      -1.9365      2.00000
      2      -1.9365      2.00000
      3      -0.3220      2.00000
      4      -0.3220      2.00000
      5       1.6990      2.00000
      6       1.6990      2.00000
      7       2.9166      2.00000
      8       2.9166      2.00000
      9       4.8200      0.60983
     10       4.8200      0.60983
     11       7.1768      0.00000
     12       7.1797      0.00000

 k-point   242 :       0.5000    0.1667    0.5000
  band No.  band energies     occupation 
      1      -1.8811      2.00000
      2      -1.8811      2.00000
      3      -0.4259      2.00000
      4      -0.4259      2.00000
      5       1.7630      2.00000
      6       1.7630      2.00000
      7       2.8040      2.00000
      8       2.8040      2.00000
      9       4.8350      0.38790
     10       4.8350      0.38790
     11       7.6645      0.00000
     12       7.6740      0.00000

 k-point   243 :       0.2500    0.2500    0.5000
  band No.  band energies     occupation 
      1      -2.0837      2.00000
      2      -2.0837      2.00000
      3       0.1184      2.00000
      4       0.1184      2.00000
      5       1.3005      2.00000
      6       1.3005      2.00000
      7       3.1715      2.00000
      8       3.1715      2.00000
      9       5.4131      0.00000
     10       5.4131      0.00000
     11       5.6892      0.00000
     12       5.6892      0.00000

 k-point   244 :       0.3333    0.2500    0.5000
  band No.  band energies     occupation 
      1      -1.9419      2.00000
      2      -1.9419      2.00000
      3      -0.1332      2.00000
      4      -0.1332      2.00000
      5       1.2872      2.00000
      6       1.2872      2.00000
      7       2.8355      2.00000
      8       2.8355      2.00000
      9       5.5883      0.00000
     10       5.5883      0.00000
     11       6.4358      0.00000
     12       6.4358      0.00000

 k-point   245 :       0.4167    0.2500    0.5000
  band No.  band energies     occupation 
      1      -1.8073      2.00000
      2      -1.8073      2.00000
      3      -0.3699      2.00000
      4      -0.3699      2.00000
      5       1.3668      2.00000
      6       1.3668      2.00000
      7       2.5653      2.00000
      8       2.5653      2.00000
      9       5.6499      0.00000
     10       5.6499      0.00000
     11       7.2781      0.00000
     12       7.2782      0.00000

 k-point   246 :       0.5000    0.2500    0.5000
  band No.  band energies     occupation 
      1      -1.7465      2.00000
      2      -1.7465      2.00000
      3      -0.4697      2.00000
      4      -0.4697      2.00000
      5       1.4175      2.00000
      6       1.4175      2.00000
      7       2.4538      2.00000
      8       2.4538      2.00000
      9       5.6723      0.00000
     10       5.6723      0.00000
     11       7.7805      0.00000
     12       7.7865      0.00000

 k-point   247 :       0.3333    0.3333    0.5000
  band No.  band energies     occupation 
      1      -1.7887      2.00000
      2      -1.7887      2.00000
      3      -0.3018      2.00000
      4      -0.3018      2.00000
      5       1.1794      2.00000
      6       1.1794      2.00000
      7       2.4881      2.00000
      8       2.4881      2.00000
      9       6.3529      0.00000
     10       6.3529      0.00000
     11       6.6365      0.00000
     12       6.6365      0.00000

 k-point   248 :       0.4167    0.3333    0.5000
  band No.  band energies     occupation 
      1      -1.6357      2.00000
      2      -1.6357      2.00000
      3      -0.5023      2.00000
      4      -0.5023      2.00000
      5       1.2115      2.00000
      6       1.2115      2.00000
      7       2.2061      2.00000
      8       2.2061      2.00000
      9       6.5364      0.00000
     10       6.5364      0.00000
     11       7.4065      0.00000
     12       7.4066      0.00000

 k-point   249 :       0.5000    0.3333    0.5000
  band No.  band energies     occupation 
      1      -1.5623      2.00000
      2      -1.5623      2.00000
      3      -0.5989      2.00000
      4      -0.5989      2.00000
      5       1.2530      2.00000
      6       1.2530      2.00000
      7       2.0864      2.00000
      8       2.0864      2.00000
      9       6.5716      0.00000
     10       6.5716      0.00000
     11       7.9648      0.00000
     12       7.9711      0.00000

 k-point   250 :       0.4167    0.4167    0.5000
  band No.  band energies     occupation 
      1      -1.4455      2.00000
      2      -1.4455      2.00000
      3      -0.6974      2.00000
      4      -0.6974      2.00000
      5       1.2270      2.00000
      6       1.2270      2.00000
      7       1.8960      2.00000
      8       1.8960      2.00000
      9       7.3246      0.00000
     10       7.3247      0.00000
     11       7.6336      0.00000
     12       7.6345      0.00000

 k-point   251 :       0.5000    0.4167    0.5000
  band No.  band energies     occupation 
      1      -1.3348      2.00000
      2      -1.3348      2.00000
      3      -0.8168      2.00000
      4      -0.8168      2.00000
      5       1.2841      2.00000
      6       1.2841      2.00000
      7       1.7456      2.00000
      8       1.7456      2.00000
      9       7.4796      0.00000
     10       7.4802      0.00000
     11       8.2011      0.00000
     12       8.2187      0.00000

 k-point   252 :       0.5000    0.5000    0.5000
  band No.  band energies     occupation 
      1      -1.0774      2.00000
      2      -1.0774      2.00000
      3      -1.0774      2.00000
      4      -1.0774      2.00000
      5       1.4654      2.00000
      6       1.4654      2.00000
      7       1.4654      2.00000
      8       1.4654      2.00000
      9       8.2282      0.00000
     10       8.2292      0.00000
     11       8.2301      0.00000
     12       8.2810      0.00000


--------------------------------------------------------------------------------------------------------


 soft charge-density along one line, spin component           1
         0         1         2         3         4         5         6         7         8         9
 total charge-density along one line

 pseudopotential strength for first ion, spin component:           1
 27.101   0.070  -0.000  -0.000   0.000  -0.000  -0.000   0.000
  0.070   5.851  -0.000  -0.000   0.000   0.000   0.000  -0.000
 -0.000  -0.000   5.785   0.000   0.000  -0.002  -0.000  -0.000
 -0.000  -0.000   0.000   5.786  -0.000  -0.000  -0.001   0.000
  0.000   0.000   0.000  -0.000   5.785  -0.000   0.000  -0.002
 -0.000   0.000  -0.002  -0.000  -0.000   0.065   0.000   0.000
 -0.000   0.000  -0.000  -0.001   0.000   0.000   0.065  -0.000
  0.000  -0.000  -0.000   0.000  -0.002   0.000  -0.000   0.065
  0.000   0.000   0.000   0.000   0.000  -0.000  -0.000  -0.000
  0.000   0.000  -0.001   0.000   0.000   0.000  -0.000  -0.000
  0.001  -0.000   0.000  -0.000   0.000  -0.000   0.000  -0.000
 -0.000  -0.000   0.000   0.000   0.001  -0.000  -0.000  -0.000
  0.000   0.000   0.000   0.001  -0.000  -0.000  -0.000   0.000
 total augmentation occupancy for first ion, spin component:           1
  1.843   0.021   0.000   0.000   0.000   0.000  -0.000   0.000   0.000   0.000  -0.007  -0.000   0.000
  0.021   0.009  -0.000  -0.000   0.000   0.000   0.000   0.000  -0.000   0.000   0.000   0.000   0.000
  0.000  -0.000   0.833   0.000   0.000  -0.289   0.000   0.000   0.000  -0.049   0.000   0.000  -0.000
  0.000   0.000  -0.000   0.785  -0.000  -0.000  -0.274  -0.000   0.000   0.000   0.000  -0.000   0.052
 -0.000   0.000  -0.000  -0.000   0.833   0.000   0.000  -0.289   0.000   0.000  -0.000   0.049   0.000
 -0.000  -0.000  -0.289   0.000   0.000   0.139   0.000   0.000   0.000   0.019   0.000   0.000   0.000
  0.000   0.000  -0.000  -0.274   0.000   0.000   0.133  -0.000  -0.000   0.000   0.000  -0.000  -0.019
  0.000  -0.000   0.000  -0.000  -0.289   0.000  -0.000   0.139  -0.000  -0.000   0.000  -0.019   0.000
  0.000   0.000   0.000   0.000   0.000   0.000  -0.000   0.000   0.016  -0.000   0.000  -0.000  -0.000
 -0.000  -0.000  -0.049   0.000   0.000   0.019  -0.000  -0.000  -0.000   0.026   0.000   0.000  -0.000
 -0.007   0.000  -0.000   0.000   0.000  -0.000   0.000   0.000   0.000   0.000   0.049   0.000   0.000
 -0.000   0.000   0.000   0.000   0.049   0.000  -0.000  -0.019   0.000  -0.000   0.000   0.026   0.000
 -0.000  -0.000  -0.000   0.052   0.000  -0.000  -0.019   0.000   0.000   0.000   0.000   0.000   0.062


------------------------ aborting loop because EDIFF is reached ----------------------------------------


    CHARGE:  cpu time    0.03: real time    0.03
    FORLOC:  cpu time    0.00: real time    0.00
    FORNL :  cpu time    0.03: real time    0.04
    STRESS:  cpu time    0.13: real time    0.13
    FORCOR:  cpu time    0.01: real time    0.00
    FORHAR:  cpu time    0.00: real time    0.00
    MIXING:  cpu time    0.00: real time    0.00
    OFIELD:  cpu time    0.00: real time    0.00

  FORCE on cell =-STRESS in cart. coord.  units (eV):
  Direction    XX          YY          ZZ          XY          YZ          ZX
  --------------------------------------------------------------------------------------
  Alpha Z    17.52135    17.52135    17.52135
  Ewald    -144.61380  -144.61380  -142.58424    -0.00000     0.00000     0.00000
  Hartree     1.75508     1.75508     2.66882    -0.00000    -0.00000    -0.00000
  E(xc)     -69.46438   -69.46438   -69.07027     0.00000    -0.00000     0.00000
  Local     -25.53278   -25.53278   -26.65618    -0.00000    -0.00000     0.00000
  n-local   160.70957   168.96745   162.36855    -0.30329    -0.01629    -0.00856
  augment   -46.75466   -46.75466   -46.13774     0.00000    -0.00000    -0.00000
  Kinetic    94.83361   109.66667   101.88868     0.47342     3.64610     2.09618
  Fock        0.00000     0.00000     0.00000     0.00000     0.00000     0.00000
  -------------------------------------------------------------------------------------
  Total      -0.00055    -0.00055    -0.00103     0.00000    -0.00000     0.00000
  in kB      -0.00779    -0.00779    -0.01461     0.00000    -0.00000     0.00000
  external pressure =       -0.01 kB  Pullay stress =        0.00 kB


 VOLUME and BASIS-vectors are now :
 -----------------------------------------------------------------------------
  energy-cutoff  :      300.00
  volume of cell :      113.50
      direct lattice vectors                 reciprocal lattice vectors
     5.944297140  0.000000000  0.000000000     0.168228468  0.000000000 -0.000000000
     0.000000000  5.944297140  0.000000000    -0.000000000  0.168228468  0.000000000
     0.000000000 -0.000000000  3.212048919     0.000000000  0.000000000  0.311327762

  length of vectors
     5.944297140  5.944297140  3.212048919     0.168228468  0.168228468  0.311327762


 FORCES acting on ions
    electron-ion (+dipol)            ewald-force                    non-local-force                 convergence-correction
 -----------------------------------------------------------------------------------------------
   0.601E-14 -.170E-13 0.507E-13   -.171E-14 -.552E-15 -.444E-15   0.000E+00 -.694E-17 -.139E-16   0.715E-15 0.103E-14 -.459E-16
   -.424E-14 0.921E-13 -.135E-12   0.270E-14 -.380E-14 -.945E-15   0.000E+00 -.347E-17 0.694E-17   -.129E-14 0.150E-14 -.947E-17
   -.305E-14 -.113E-12 0.506E-13   0.238E-15 0.382E-14 -.444E-15   0.000E+00 -.694E-17 -.139E-16   -.758E-15 -.168E-14 0.173E-16
   0.598E-14 -.844E-14 -.747E-13   -.123E-14 0.573E-15 -.781E-15   0.000E+00 -.347E-17 0.694E-17   0.193E-15 -.124E-14 -.976E-16
 -----------------------------------------------------------------------------------------------
   0.471E-14 -.461E-13 -.108E-12   0.548E-17 0.415E-16 -.261E-14   0.000E+00 -.208E-16 -.139E-16   -.114E-14 -.393E-15 -.136E-15


 POSITION                                       TOTAL-FORCE (eV/Angst)
 -----------------------------------------------------------------------------------
      0.00000      0.00000      1.60602         0.000000     -0.000000      0.000000
      2.97215      0.00000      2.40904         0.000000      0.000000     -0.000000
      2.97215      2.97215      0.00000         0.000000     -0.000000      0.000000
      0.00000      2.97215      0.80301        -0.000000      0.000000     -0.000000
 -----------------------------------------------------------------------------------
    total drift:                                0.000000     -0.000000     -0.000000


--------------------------------------------------------------------------------------------------------



  FREE ENERGIE OF THE ION-ELECTRON SYSTEM (eV)
  ---------------------------------------------------
  free  energy   TOTEN  =       -15.29790666 eV

  energy  without entropy=      -15.29383855  energy(sigma->0) =      -15.29587260



--------------------------------------------------------------------------------------------------------


    POTLOK:  cpu time    0.01: real time    0.01


--------------------------------------------------------------------------------------------------------




--------------------------------------------------------------------------------------------------------


  
 reached required accuracy - stopping structural energy minimisation
     LOOP+:  cpu time    5.39: real time    5.49
    4ORBIT:  cpu time    0.00: real time    0.00

 total amount of memory used by VASP on root node    37083. kBytes
========================================================================

   base      :      30000. kBytes
   nonl-proj :       3257. kBytes
   fftplans  :        196. kBytes
   grid      :        284. kBytes
   one-center:          8. kBytes
   wavefun   :       3338. kBytes

  
  
 General timing and accounting informations for this job:
 ========================================================
  
                  Total CPU time used (sec):        6.224
                            User time (sec):        6.080
                          System time (sec):        0.144
                         Elapsed time (sec):        6.505
  
                   Maximum memory used (kb):       28824.
                   Average memory used (kb):           0.
  
                          Minor page faults:         7536
                          Major page faults:            0
                 Voluntary context switches:         2573
