Sn                                      
           1
     5.944297    0.000000    0.000000
     0.000000    5.944297    0.000000
     0.000000   -0.000000    3.212049
   Sn
   4
Direct configuration=     1
   0.00000000  0.00000000  0.50000000
   0.50000000  0.00000000  0.75000000
   0.50000000  0.50000000  0.00000000
   0.00000000  0.50000000  0.25000000
