       N       E                     dE             d eps       ncg     rms          rms(c)
DAV:   1     0.555639559324E+03    0.55564E+03   -0.30412E+04 31224   0.121E+03
DAV:   2    -0.653538935662E+02   -0.62099E+03   -0.59877E+03 31000   0.296E+02
DAV:   3    -0.170466761733E+03   -0.10511E+03   -0.98779E+02 43576   0.103E+02
DAV:   4    -0.175351503699E+03   -0.48847E+01   -0.48169E+01 39656   0.241E+01
DAV:   5    -0.175445625728E+03   -0.94122E-01   -0.93758E-01 39434   0.347E+00    0.196E+01
RMM:   6    -0.163382831534E+03    0.12063E+02   -0.13770E+02 31167   0.419E+01    0.538E+00
RMM:   7    -0.161568073705E+03    0.18148E+01   -0.38877E+00 31011   0.798E+00    0.319E+00
RMM:   8    -0.161649169567E+03   -0.81096E-01   -0.73691E+00 31135   0.901E+00    0.297E+00
RMM:   9    -0.161158377869E+03    0.49079E+00   -0.32811E+00 31000   0.703E+00    0.599E-01
RMM:  10    -0.161145178410E+03    0.13199E-01   -0.12541E-01 31923   0.114E+00    0.367E-01
RMM:  11    -0.161138856608E+03    0.63218E-02   -0.25909E-02 31018   0.656E-01    0.967E-02
RMM:  12    -0.161138975043E+03   -0.11844E-03   -0.53218E-03 31869   0.163E-01    0.326E-02
RMM:  13    -0.161139039182E+03   -0.64139E-04   -0.12569E-03 31007   0.154E-01    0.481E-02
RMM:  14    -0.161138931773E+03    0.10741E-03   -0.31934E-04 31007   0.771E-02    0.132E-02
RMM:  15    -0.161138936295E+03   -0.45220E-05   -0.13554E-04 33544   0.308E-02    0.471E-03
RMM:  16    -0.161138933733E+03    0.25620E-05   -0.49865E-06 22206   0.659E-03    0.115E-03
RMM:  17    -0.161138933588E+03    0.14445E-06   -0.19438E-06 21060   0.415E-03
   1 F= -.16113893E+03 E0= -.16112945E+03  d E =-.161139E+03
       N       E                     dE             d eps       ncg     rms          rms(c)
DAV:   1    -0.161139612879E+03   -0.67915E-03   -0.19182E-02 34310   0.405E-01    0.338E-02
RMM:   2    -0.161139977571E+03   -0.36469E-03   -0.29075E-03 31009   0.196E-01    0.844E-02
RMM:   3    -0.161139593698E+03    0.38387E-03   -0.13502E-03 31001   0.143E-01    0.121E-02
RMM:   4    -0.161139609569E+03   -0.15871E-04   -0.31092E-04 33733   0.422E-02    0.135E-02
RMM:   5    -0.161139603711E+03    0.58579E-05   -0.44961E-05 31002   0.207E-02    0.145E-03
RMM:   6    -0.161139603060E+03    0.65033E-06   -0.30162E-06 21792   0.440E-03
   2 F= -.16113960E+03 E0= -.16113010E+03  d E =-.669472E-03
       N       E                     dE             d eps       ncg     rms          rms(c)
DAV:   1    -0.161139830617E+03   -0.22691E-03   -0.18149E-02 33886   0.394E-01    0.328E-02
RMM:   2    -0.161139816458E+03    0.14160E-04   -0.46143E-04 31002   0.816E-02    0.210E-03
RMM:   3    -0.161139818555E+03   -0.20978E-05   -0.28885E-05 34753   0.175E-02    0.939E-04
RMM:   4    -0.161139818617E+03   -0.61804E-07   -0.92485E-07 18797   0.387E-03
   3 F= -.16113982E+03 E0= -.16113030E+03  d E =-.885029E-03
       N       E                     dE             d eps       ncg     rms          rms(c)
DAV:   1    -0.161139971261E+03   -0.15271E-03   -0.20221E-03 33944   0.144E-01    0.991E-03
RMM:   2    -0.161140089711E+03   -0.11845E-03   -0.91719E-04 31012   0.114E-01    0.453E-02
RMM:   3    -0.161139985582E+03    0.10413E-03   -0.19388E-04 31000   0.595E-02    0.174E-02
RMM:   4    -0.161139977943E+03    0.76397E-05   -0.12584E-04 32025   0.321E-02    0.112E-03
RMM:   5    -0.161139979642E+03   -0.16989E-05   -0.18502E-05 29186   0.128E-02    0.594E-03
RMM:   6    -0.161139978778E+03    0.86365E-06   -0.27682E-06 21045   0.707E-03
   4 F= -.16113998E+03 E0= -.16113045E+03  d E =-.160161E-03
       N       E                     dE             d eps       ncg     rms          rms(c)
DAV:   1    -0.161140137653E+03   -0.15801E-03   -0.18167E-02 33202   0.431E-01    0.292E-02
RMM:   2    -0.161140202022E+03   -0.64369E-04   -0.96553E-04 31000   0.141E-01    0.462E-03
RMM:   3    -0.161140213294E+03   -0.11272E-04   -0.13878E-04 31718   0.445E-02    0.127E-02
RMM:   4    -0.161140207932E+03    0.53620E-05   -0.35065E-05 31048   0.219E-02    0.280E-03
RMM:   5    -0.161140208664E+03   -0.73163E-06   -0.98734E-06 27460   0.957E-03
   5 F= -.16114021E+03 E0= -.16113065E+03  d E =-.390047E-03
       N       E                     dE             d eps       ncg     rms          rms(c)
DAV:   1    -0.161140209617E+03   -0.16853E-05   -0.14297E-04 36588   0.383E-02    0.229E-03
RMM:   2    -0.161140210007E+03   -0.38939E-06   -0.69321E-06 28477   0.120E-02    0.466E-04
RMM:   3    -0.161140209893E+03    0.11393E-06   -0.50483E-07 16679   0.319E-03    0.238E-04
RMM:   4    -0.161140209873E+03    0.19863E-07   -0.14226E-07 16306   0.182E-03
   6 F= -.16114021E+03 E0= -.16113065E+03  d E =-.391256E-03
       N       E                     dE             d eps       ncg     rms          rms(c)
DAV:   1    -0.161140209934E+03   -0.40803E-07   -0.22530E-06 22922   0.485E-03    0.352E-04
RMM:   2    -0.161140209964E+03   -0.30748E-07   -0.24372E-07 16048   0.201E-03    0.596E-05
RMM:   3    -0.161140209967E+03   -0.21735E-08   -0.45171E-08 10419   0.106E-03    0.802E-05
RMM:   4    -0.161140209969E+03   -0.22813E-08   -0.23536E-09  2308   0.770E-04
   7 F= -.16114021E+03 E0= -.16113065E+03  d E =-.391352E-03
       N       E                     dE             d eps       ncg     rms          rms(c)
DAV:   1    -0.161140210413E+03   -0.44640E-06   -0.12981E-05 33856   0.109E-02    0.644E-04
RMM:   2    -0.161140210499E+03   -0.85905E-07   -0.24354E-06 17948   0.644E-03    0.234E-03
RMM:   3    -0.161140210355E+03    0.14378E-06   -0.74692E-07 15915   0.510E-03    0.107E-03
RMM:   4    -0.161140210453E+03   -0.98048E-07   -0.47722E-07 15833   0.218E-03
   8 F= -.16114021E+03 E0= -.16113065E+03  d E =-.484287E-06
       N       E                     dE             d eps       ncg     rms          rms(c)
DAV:   1    -0.161140210610E+03   -0.25439E-06   -0.76486E-06 33622   0.834E-03    0.671E-04
RMM:   2    -0.161140210657E+03   -0.47678E-07   -0.43207E-07 15878   0.308E-03    0.428E-04
RMM:   3    -0.161140210660E+03   -0.30229E-08   -0.68580E-08 14889   0.136E-03    0.490E-04
RMM:   4    -0.161140210683E+03   -0.22391E-07   -0.34114E-09  3079   0.735E-04
   9 F= -.16114021E+03 E0= -.16113065E+03  d E =-.713724E-06
       N       E                     dE             d eps       ncg     rms          rms(c)
DAV:   1    -0.161140210701E+03   -0.41226E-07   -0.24056E-07 18854   0.159E-03    0.388E-04
RMM:   2    -0.161140210700E+03    0.11197E-08   -0.69461E-09  3517   0.858E-04    0.362E-04
RMM:   3    -0.161140210649E+03    0.51260E-07   -0.22972E-08  6130   0.948E-04    0.165E-04
RMM:   4    -0.161140210631E+03    0.17747E-07   -0.42878E-08  6711   0.878E-04
  10 F= -.16114021E+03 E0= -.16113065E+03  d E =-.662432E-06
       N       E                     dE             d eps       ncg     rms          rms(c)
DAV:   1    -0.161140210670E+03   -0.20696E-07   -0.13801E-06 18326   0.391E-03    0.264E-04
RMM:   2    -0.161140210774E+03   -0.10459E-06   -0.15628E-07 15616   0.157E-03    0.341E-04
RMM:   3    -0.161140210730E+03    0.44795E-07   -0.56278E-09  2408   0.815E-04    0.238E-04
RMM:   4    -0.161140210708E+03    0.21872E-07   -0.97258E-09  2714   0.852E-04
  11 F= -.16114021E+03 E0= -.16113065E+03  d E =-.763675E-07
       N       E                     dE             d eps       ncg     rms          rms(c)
DAV:   1    -0.161140210690E+03    0.39892E-07   -0.59504E-08 18188   0.944E-04    0.784E-05
RMM:   2    -0.161140210682E+03    0.74640E-08   -0.96164E-10  2100   0.657E-04    0.377E-05
RMM:   3    -0.161140210670E+03    0.12132E-07   -0.19331E-12   686   0.628E-04    0.467E-05
RMM:   4    -0.161140210668E+03    0.16756E-08   -0.63671E-28   600   0.604E-04
  12 F= -.16114021E+03 E0= -.16113065E+03  d E =-.370759E-07
       N       E                     dE             d eps       ncg     rms          rms(c)
DAV:   1    -0.161140210675E+03   -0.47167E-08   -0.20824E-08 17138   0.680E-04    0.675E-05
RMM:   2    -0.161140210685E+03   -0.10341E-07   -0.50849E-26   933   0.387E-04    0.406E-05
RMM:   3    -0.161140210691E+03   -0.60564E-08    0.00000E+00   568   0.420E-04    0.306E-05
RMM:   4    -0.161140210690E+03    0.14419E-08    0.00000E+00   444   0.418E-04
  13 F= -.16114021E+03 E0= -.16113065E+03  d E =-.584236E-07
       N       E                     dE             d eps       ncg     rms          rms(c)
DAV:   1    -0.161140210697E+03   -0.59133E-08   -0.53258E-08 17108   0.762E-04    0.580E-05
RMM:   2    -0.161140210691E+03    0.65984E-08    0.00000E+00   643   0.451E-04    0.434E-05
RMM:   3    -0.161140210692E+03   -0.14205E-08    0.00000E+00   460   0.464E-04    0.503E-05
RMM:   4    -0.161140210701E+03   -0.93586E-08    0.00000E+00   374   0.466E-04
  14 F= -.16114021E+03 E0= -.16113065E+03  d E =-.699595E-07
       N       E                     dE             d eps       ncg     rms          rms(c)
DAV:   1    -0.161140210707E+03   -0.14998E-07   -0.11701E-07 16898   0.121E-03    0.713E-05
RMM:   2    -0.161140210710E+03   -0.32480E-08   -0.13197E-12   679   0.593E-04    0.381E-05
RMM:   3    -0.161140210707E+03    0.33681E-08    0.00000E+00   366   0.618E-04    0.133E-05
RMM:   4    -0.161140210706E+03    0.10930E-08    0.00000E+00   328   0.620E-04
  15 F= -.16114021E+03 E0= -.16113065E+03  d E =-.743854E-07
       N       E                     dE             d eps       ncg     rms          rms(c)
DAV:   1    -0.161140210718E+03   -0.11102E-07   -0.34825E-06 26130   0.568E-03    0.445E-04
RMM:   2    -0.161140210695E+03    0.22895E-07   -0.10194E-07 14670   0.140E-03    0.321E-04
RMM:   3    -0.161140210657E+03    0.38461E-07   -0.14049E-08  7288   0.887E-04    0.211E-04
RMM:   4    -0.161140210685E+03   -0.28756E-07   -0.66979E-09  3207   0.696E-04
  16 F= -.16114021E+03 E0= -.16113065E+03  d E =0.204062E-07
