AlO                                     
           1
     4.810753    0.024054    0.000000
     0.041393    8.278566    0.000000
     0.000000    0.000000    8.650904
   Ti   Si
   8  16
Direct configuration=     1
   0.00000000  0.00000000  0.00000000
   0.75000000  0.75000000  0.25000000
   0.00000000  0.50000000  0.50000000
   0.75000000  0.25000000  0.75000000
   0.50000000  0.00000000  0.50000000
   0.25000000  0.75000000  0.75000000
   0.50000000  0.50000000  0.00000000
   0.25000000  0.25000000  0.25000000
   0.00000000  0.33673444  0.00000000
   0.00000000  0.66326559  0.00000000
   0.75000000  0.08673443  0.25000000
   0.75000000  0.41326556  0.25000000
   0.00000000  0.83673441  0.50000000
   0.00000000  0.16326557  0.50000000
   0.75000000  0.58673441  0.75000000
   0.75000000  0.91326559  0.75000000
   0.50000000  0.33673444  0.50000000
   0.50000000  0.66326559  0.50000000
   0.25000000  0.08673443  0.75000000
   0.25000000  0.41326556  0.75000000
   0.50000000  0.83673441  0.00000000
   0.50000000  0.16326557  0.00000000
   0.25000000  0.58673441  0.25000000
   0.25000000  0.91326559  0.25000000
Direct configuration=     2
  -0.00000000 -0.00000000 -0.00017290
   0.75000000  0.75000000  0.25017290
  -0.00000000  0.50000000  0.49982710
   0.75000000  0.25000000  0.75017290
   0.50000000 -0.00000000  0.49982710
   0.25000000  0.75000000  0.75017290
   0.50000000  0.50000000 -0.00017290
   0.25000000  0.25000000  0.25017290
  -0.00000791  0.33679482 -0.00005805
   0.00000791  0.66320521 -0.00005805
   0.74999209  0.08679480  0.25005805
   0.75000791  0.41320518  0.25005805
  -0.00000791  0.83679479  0.49994195
   0.00000791  0.16320520  0.49994195
   0.74999209  0.58679479  0.75005805
   0.75000791  0.91320521  0.75005805
   0.49999209  0.33679482  0.49994195
   0.50000791  0.66320521  0.49994195
   0.24999209  0.08679480  0.75005805
   0.25000791  0.41320518  0.75005805
   0.49999209  0.83679479 -0.00005805
   0.50000791  0.16320520 -0.00005805
   0.24999209  0.58679479  0.25005805
   0.25000791  0.91320521  0.25005805
Direct configuration=     3
  -0.00000000 -0.00000000 -0.00034121
   0.75000000  0.75000000  0.25034121
  -0.00000000  0.50000000  0.49965879
   0.75000000  0.25000000  0.75034121
   0.50000000 -0.00000000  0.49965879
   0.25000000  0.75000000  0.75034121
   0.50000000  0.50000000 -0.00034121
   0.25000000  0.25000000  0.25034121
  -0.00001562  0.33685359 -0.00011455
   0.00001562  0.66314644 -0.00011455
   0.74998438  0.08685358  0.25011455
   0.75001562  0.41314641  0.25011455
  -0.00001562  0.83685356  0.49988545
   0.00001562  0.16314642  0.49988545
   0.74998438  0.58685356  0.75011455
   0.75001562  0.91314644  0.75011455
   0.49998438  0.33685359  0.49988545
   0.50001562  0.66314644  0.49988545
   0.24998438  0.08685358  0.75011455
   0.25001562  0.41314641  0.75011455
   0.49998438  0.83685356 -0.00011455
   0.50001562  0.16314642 -0.00011455
   0.24998438  0.58685356  0.25011455
   0.25001562  0.91314644  0.25011455
Direct configuration=     4
   0.00000000 -0.00000000 -0.00037612
   0.75000000  0.75000000  0.25037612
   0.00000000  0.50000000  0.49962388
   0.75000000  0.25000000  0.75037612
   0.50000000 -0.00000000  0.49962388
   0.25000000  0.75000000  0.75037612
   0.50000000  0.50000000 -0.00037612
   0.25000000  0.25000000  0.25037612
   0.00004215  0.33691427 -0.00008217
  -0.00004215  0.66308576 -0.00008217
   0.75004215  0.08691425  0.25008217
   0.74995785  0.41308573  0.25008217
   0.00004215  0.83691424  0.49991783
  -0.00004215  0.16308575  0.49991783
   0.75004215  0.58691424  0.75008217
   0.74995785  0.91308576  0.75008217
   0.50004215  0.33691427  0.49991783
   0.49995785  0.66308576  0.49991783
   0.25004215  0.08691425  0.75008217
   0.24995785  0.41308573  0.75008217
   0.50004215  0.83691424 -0.00008217
   0.49995785  0.16308575 -0.00008217
   0.25004215  0.58691424  0.25008217
   0.24995785  0.91308576  0.25008217
Direct configuration=     5
   0.00000000 -0.00000000 -0.00048085
   0.75000000  0.75000000  0.25048085
   0.00000000  0.50000000  0.49951915
   0.75000000  0.25000000  0.75048085
   0.50000000 -0.00000000  0.49951915
   0.25000000  0.75000000  0.75048085
   0.50000000  0.50000000 -0.00048085
   0.25000000  0.25000000  0.25048085
   0.00021545  0.33709629  0.00001498
  -0.00021545  0.66290374  0.00001498
   0.75021545  0.08709627  0.24998502
   0.74978455  0.41290371  0.24998502
   0.00021545  0.83709626  0.50001498
  -0.00021545  0.16290373  0.50001498
   0.75021545  0.58709626  0.74998502
   0.74978455  0.91290374  0.74998502
   0.50021545  0.33709629  0.50001498
   0.49978455  0.66290374  0.50001498
   0.25021545  0.08709627  0.74998502
   0.24978455  0.41290371  0.74998502
   0.50021545  0.83709626  0.00001498
   0.49978455  0.16290373  0.00001498
   0.25021545  0.58709626  0.24998502
   0.24978455  0.91290374  0.24998502
Direct configuration=     6
   0.00000000 -0.00000000 -0.00049011
   0.75000000  0.75000000  0.25049011
   0.00000000  0.50000000  0.49950989
   0.75000000  0.25000000  0.75049011
   0.50000000 -0.00000000  0.49950989
   0.25000000  0.75000000  0.75049011
   0.50000000  0.50000000 -0.00049011
   0.25000000  0.25000000  0.25049011
   0.00023076  0.33711237  0.00002356
  -0.00023076  0.66288766  0.00002356
   0.75023076  0.08711235  0.24997644
   0.74976924  0.41288763  0.24997644
   0.00023076  0.83711234  0.50002356
  -0.00023076  0.16288765  0.50002356
   0.75023076  0.58711234  0.74997644
   0.74976924  0.91288766  0.74997644
   0.50023076  0.33711237  0.50002356
   0.49976924  0.66288766  0.50002356
   0.25023076  0.08711235  0.74997644
   0.24976924  0.41288763  0.74997644
   0.50023076  0.83711234  0.00002356
   0.49976924  0.16288765  0.00002356
   0.25023076  0.58711234  0.24997644
   0.24976924  0.91288766  0.24997644
Direct configuration=     7
   0.00000000 -0.00000000 -0.00049126
   0.75000000  0.75000000  0.25049126
   0.00000000  0.50000000  0.49950874
   0.75000000  0.25000000  0.75049126
   0.50000000 -0.00000000  0.49950874
   0.25000000  0.75000000  0.75049126
   0.50000000  0.50000000 -0.00049126
   0.25000000  0.25000000  0.25049126
   0.00023267  0.33711437  0.00002463
  -0.00023267  0.66288566  0.00002463
   0.75023267  0.08711436  0.24997537
   0.74976733  0.41288563  0.24997537
   0.00023267  0.83711434  0.50002463
  -0.00023267  0.16288564  0.50002463
   0.75023267  0.58711434  0.74997537
   0.74976733  0.91288566  0.74997537
   0.50023267  0.33711437  0.50002463
   0.49976733  0.66288566  0.50002463
   0.25023267  0.08711436  0.74997537
   0.24976733  0.41288563  0.74997537
   0.50023267  0.83711434  0.00002463
   0.49976733  0.16288564  0.00002463
   0.25023267  0.58711434  0.24997537
   0.24976733  0.91288566  0.24997537
Direct configuration=     8
   0.00000000 -0.00000000 -0.00049286
   0.75000000  0.75000000  0.25049286
   0.00000000  0.50000000  0.49950714
   0.75000000  0.25000000  0.75049286
   0.50000000 -0.00000000  0.49950714
   0.25000000  0.75000000  0.75049286
   0.50000000  0.50000000 -0.00049286
   0.25000000  0.25000000  0.25049286
   0.00024176  0.33711248  0.00002315
  -0.00024176  0.66288755  0.00002315
   0.75024176  0.08711246  0.24997685
   0.74975824  0.41288752  0.24997685
   0.00024176  0.83711245  0.50002315
  -0.00024176  0.16288754  0.50002315
   0.75024176  0.58711245  0.74997685
   0.74975824  0.91288755  0.74997685
   0.50024176  0.33711248  0.50002315
   0.49975824  0.66288755  0.50002315
   0.25024176  0.08711246  0.74997685
   0.24975824  0.41288752  0.74997685
   0.50024176  0.83711245  0.00002315
   0.49975824  0.16288754  0.00002315
   0.25024176  0.58711245  0.24997685
   0.24975824  0.91288755  0.24997685
Direct configuration=     9
   0.00000000 -0.00000000 -0.00049405
   0.75000000  0.75000000  0.25049405
   0.00000000  0.50000000  0.49950595
   0.75000000  0.25000000  0.75049405
   0.50000000 -0.00000000  0.49950595
   0.25000000  0.75000000  0.75049405
   0.50000000  0.50000000 -0.00049405
   0.25000000  0.25000000  0.25049405
   0.00024853  0.33711107  0.00002204
  -0.00024853  0.66288896  0.00002204
   0.75024853  0.08711105  0.24997796
   0.74975147  0.41288893  0.24997796
   0.00024853  0.83711104  0.50002204
  -0.00024853  0.16288895  0.50002204
   0.75024853  0.58711104  0.74997796
   0.74975147  0.91288896  0.74997796
   0.50024853  0.33711107  0.50002204
   0.49975147  0.66288896  0.50002204
   0.25024853  0.08711105  0.74997796
   0.24975147  0.41288893  0.74997796
   0.50024853  0.83711104  0.00002204
   0.49975147  0.16288895  0.00002204
   0.25024853  0.58711104  0.24997796
   0.24975147  0.91288896  0.24997796
Direct configuration=    10
   0.00000000 -0.00000000 -0.00049425
   0.75000000  0.75000000  0.25049425
   0.00000000  0.50000000  0.49950575
   0.75000000  0.25000000  0.75049425
   0.50000000 -0.00000000  0.49950575
   0.25000000  0.75000000  0.75049425
   0.50000000  0.50000000 -0.00049425
   0.25000000  0.25000000  0.25049425
   0.00024969  0.33711083  0.00002185
  -0.00024969  0.66288920  0.00002185
   0.75024969  0.08711081  0.24997815
   0.74975031  0.41288917  0.24997815
   0.00024969  0.83711080  0.50002185
  -0.00024969  0.16288919  0.50002185
   0.75024969  0.58711080  0.74997815
   0.74975031  0.91288920  0.74997815
   0.50024969  0.33711083  0.50002185
   0.49975031  0.66288920  0.50002185
   0.25024969  0.08711081  0.74997815
   0.24975031  0.41288917  0.74997815
   0.50024969  0.83711080  0.00002185
   0.49975031  0.16288919  0.00002185
   0.25024969  0.58711080  0.24997815
   0.24975031  0.91288920  0.24997815
Direct configuration=    11
   0.00000000 -0.00000000 -0.00049512
   0.75000000  0.75000000  0.25049512
   0.00000000  0.50000000  0.49950488
   0.75000000  0.25000000  0.75049512
   0.50000000 -0.00000000  0.49950488
   0.25000000  0.75000000  0.75049512
   0.50000000  0.50000000 -0.00049512
   0.25000000  0.25000000  0.25049512
   0.00025085  0.33710977  0.00002340
  -0.00025085  0.66289026  0.00002340
   0.75025085  0.08710976  0.24997660
   0.74974915  0.41289023  0.24997660
   0.00025085  0.83710974  0.50002340
  -0.00025085  0.16289024  0.50002340
   0.75025085  0.58710974  0.74997660
   0.74974915  0.91289026  0.74997660
   0.50025085  0.33710977  0.50002340
   0.49974915  0.66289026  0.50002340
   0.25025085  0.08710976  0.74997660
   0.24974915  0.41289023  0.74997660
   0.50025085  0.83710974  0.00002340
   0.49974915  0.16289024  0.00002340
   0.25025085  0.58710974  0.24997660
   0.24974915  0.91289026  0.24997660
Direct configuration=    12
   0.00000000 -0.00000000 -0.00049515
   0.75000000  0.75000000  0.25049515
   0.00000000  0.50000000  0.49950485
   0.75000000  0.25000000  0.75049515
   0.50000000 -0.00000000  0.49950485
   0.25000000  0.75000000  0.75049515
   0.50000000  0.50000000 -0.00049515
   0.25000000  0.25000000  0.25049515
   0.00025089  0.33710974  0.00002345
  -0.00025089  0.66289029  0.00002345
   0.75025089  0.08710972  0.24997655
   0.74974911  0.41289026  0.24997655
   0.00025089  0.83710971  0.50002345
  -0.00025089  0.16289028  0.50002345
   0.75025089  0.58710971  0.74997655
   0.74974911  0.91289029  0.74997655
   0.50025089  0.33710974  0.50002345
   0.49974911  0.66289029  0.50002345
   0.25025089  0.08710972  0.74997655
   0.24974911  0.41289026  0.74997655
   0.50025089  0.83710971  0.00002345
   0.49974911  0.16289028  0.00002345
   0.25025089  0.58710971  0.24997655
   0.24974911  0.91289029  0.24997655
Direct configuration=    13
   0.00000000 -0.00000000 -0.00049521
   0.75000000  0.75000000  0.25049521
   0.00000000  0.50000000  0.49950479
   0.75000000  0.25000000  0.75049521
   0.50000000 -0.00000000  0.49950479
   0.25000000  0.75000000  0.75049521
   0.50000000  0.50000000 -0.00049521
   0.25000000  0.25000000  0.25049521
   0.00025098  0.33710966  0.00002356
  -0.00025098  0.66289037  0.00002356
   0.75025098  0.08710964  0.24997644
   0.74974902  0.41289034  0.24997644
   0.00025098  0.83710963  0.50002356
  -0.00025098  0.16289036  0.50002356
   0.75025098  0.58710963  0.74997644
   0.74974902  0.91289037  0.74997644
   0.50025098  0.33710966  0.50002356
   0.49974902  0.66289037  0.50002356
   0.25025098  0.08710964  0.74997644
   0.24974902  0.41289034  0.74997644
   0.50025098  0.83710963  0.00002356
   0.49974902  0.16289036  0.00002356
   0.25025098  0.58710963  0.24997644
   0.24974902  0.91289037  0.24997644
Direct configuration=    14
   0.00000000 -0.00000000 -0.00049534
   0.75000000  0.75000000  0.25049534
   0.00000000  0.50000000  0.49950466
   0.75000000  0.25000000  0.75049534
   0.50000000 -0.00000000  0.49950466
   0.25000000  0.75000000  0.75049534
   0.50000000  0.50000000 -0.00049534
   0.25000000  0.25000000  0.25049534
   0.00025115  0.33710951  0.00002379
  -0.00025115  0.66289052  0.00002379
   0.75025115  0.08710949  0.24997621
   0.74974885  0.41289049  0.24997621
   0.00025115  0.83710948  0.50002379
  -0.00025115  0.16289051  0.50002379
   0.75025115  0.58710948  0.74997621
   0.74974885  0.91289052  0.74997621
   0.50025115  0.33710951  0.50002379
   0.49974885  0.66289052  0.50002379
   0.25025115  0.08710949  0.74997621
   0.24974885  0.41289049  0.74997621
   0.50025115  0.83710948  0.00002379
   0.49974885  0.16289051  0.00002379
   0.25025115  0.58710948  0.24997621
   0.24974885  0.91289052  0.24997621
Direct configuration=    15
   0.00000000 -0.00000000 -0.00049559
   0.75000000  0.75000000  0.25049559
   0.00000000  0.50000000  0.49950441
   0.75000000  0.25000000  0.75049559
   0.50000000 -0.00000000  0.49950441
   0.25000000  0.75000000  0.75049559
   0.50000000  0.50000000 -0.00049559
   0.25000000  0.25000000  0.25049559
   0.00025148  0.33710920  0.00002424
  -0.00025148  0.66289083  0.00002424
   0.75025148  0.08710918  0.24997576
   0.74974852  0.41289080  0.24997576
   0.00025148  0.83710917  0.50002424
  -0.00025148  0.16289082  0.50002424
   0.75025148  0.58710917  0.74997576
   0.74974852  0.91289083  0.74997576
   0.50025148  0.33710920  0.50002424
   0.49974852  0.66289083  0.50002424
   0.25025148  0.08710918  0.74997576
   0.24974852  0.41289080  0.74997576
   0.50025148  0.83710917  0.00002424
   0.49974852  0.16289082  0.00002424
   0.25025148  0.58710917  0.24997576
   0.24974852  0.91289083  0.24997576
Direct configuration=    16
   0.00000000 -0.00000000 -0.00049830
   0.75000000  0.75000000  0.25049830
   0.00000000  0.50000000  0.49950170
   0.75000000  0.25000000  0.75049830
   0.50000000 -0.00000000  0.49950170
   0.25000000  0.75000000  0.75049830
   0.50000000  0.50000000 -0.00049830
   0.25000000  0.25000000  0.25049830
   0.00025189  0.33710827  0.00002475
  -0.00025189  0.66289176  0.00002475
   0.75025189  0.08710826  0.24997525
   0.74974811  0.41289173  0.24997525
   0.00025189  0.83710824  0.50002475
  -0.00025189  0.16289174  0.50002475
   0.75025189  0.58710824  0.74997525
   0.74974811  0.91289176  0.74997525
   0.50025189  0.33710827  0.50002475
   0.49974811  0.66289176  0.50002475
   0.25025189  0.08710826  0.74997525
   0.24974811  0.41289173  0.74997525
   0.50025189  0.83710824  0.00002475
   0.49974811  0.16289174  0.00002475
   0.25025189  0.58710824  0.24997525
   0.24974811  0.91289176  0.24997525
