       N       E                     dE             d eps       ncg     rms          rms(c)
DAV:   1     0.288320841935E+02    0.28832E+02   -0.85419E+03  4056   0.802E+02
DAV:   2    -0.218789580789E+02   -0.50711E+02   -0.46552E+02  4962   0.900E+01
DAV:   3    -0.242600684281E+02   -0.23811E+01   -0.22783E+01  5228   0.172E+01
DAV:   4    -0.243203786887E+02   -0.60310E-01   -0.60105E-01  5440   0.321E+00
DAV:   5    -0.243221261348E+02   -0.17474E-02   -0.17472E-02  5454   0.546E-01    0.274E+00
RMM:   6    -0.243215312719E+02    0.59486E-03   -0.80392E-03  4056   0.605E-01    0.176E+00
RMM:   7    -0.243273344183E+02   -0.58031E-02   -0.28592E-02  4056   0.126E+00    0.115E-01
RMM:   8    -0.243271762171E+02    0.15820E-03   -0.22611E-04  4058   0.940E-02    0.399E-02
RMM:   9    -0.243271809970E+02   -0.47799E-05   -0.43968E-05  4070   0.422E-02    0.223E-03
RMM:  10    -0.243271843792E+02   -0.33821E-05   -0.69374E-06  3979   0.124E-02    0.857E-04
RMM:  11    -0.243271854195E+02   -0.10404E-05   -0.50372E-07  2479   0.409E-03    0.259E-04
RMM:  12    -0.243271859848E+02   -0.56531E-06   -0.21321E-07  1992   0.265E-03
   1 F= -.24327186E+02 E0= -.24319094E+02  d E =-.243272E+02
       N       E                     dE             d eps       ncg     rms          rms(c)
DAV:   1    -0.243272775077E+02   -0.92088E-04   -0.83001E-05  4950   0.513E-02    0.157E-03
RMM:   2    -0.243272776123E+02   -0.10467E-06   -0.13218E-06  2296   0.656E-03    0.999E-04
RMM:   3    -0.243272777230E+02   -0.11072E-06   -0.34511E-07  2209   0.372E-03    0.255E-04
RMM:   4    -0.243272778745E+02   -0.15150E-06   -0.12508E-07  1855   0.217E-03
   2 F= -.24327278E+02 E0= -.24319184E+02  d E =-.918897E-04
       N       E                     dE             d eps       ncg     rms          rms(c)
DAV:   1    -0.243275235449E+02   -0.24582E-03   -0.74998E-04  4298   0.153E-01    0.472E-03
RMM:   2    -0.243275256813E+02   -0.21364E-05   -0.16216E-05  4042   0.213E-02    0.108E-04
RMM:   3    -0.243275256174E+02    0.63918E-07   -0.12560E-06  2345   0.686E-03    0.933E-05
RMM:   4    -0.243275256073E+02    0.10046E-07   -0.56033E-07  2096   0.463E-03
   3 F= -.24327526E+02 E0= -.24319428E+02  d E =-.339622E-03
       N       E                     dE             d eps       ncg     rms          rms(c)
DAV:   1    -0.243278906834E+02   -0.36507E-03   -0.30060E-03  4100   0.307E-01    0.943E-03
RMM:   2    -0.243278986480E+02   -0.79647E-05   -0.65245E-05  4056   0.428E-02    0.112E-04
RMM:   3    -0.243278994230E+02   -0.77500E-06   -0.86806E-06  4268   0.138E-02    0.238E-04
RMM:   4    -0.243278994456E+02   -0.22564E-07   -0.41864E-07  1721   0.343E-03
   4 F= -.24327899E+02 E0= -.24319793E+02  d E =-.713461E-03
       N       E                     dE             d eps       ncg     rms          rms(c)
DAV:   1    -0.243281202725E+02   -0.22085E-03   -0.11981E-02  4060   0.615E-01    0.188E-02
RMM:   2    -0.243281511955E+02   -0.30923E-04   -0.25100E-04  4056   0.838E-02    0.499E-04
RMM:   3    -0.243281542494E+02   -0.30538E-05   -0.35199E-05  5064   0.269E-02    0.132E-04
RMM:   4    -0.243281542286E+02    0.20741E-07   -0.26291E-07  2350   0.252E-03
   5 F= -.24328154E+02 E0= -.24320031E+02  d E =-.968244E-03
       N       E                     dE             d eps       ncg     rms          rms(c)
DAV:   1    -0.243281579716E+02   -0.37222E-05   -0.20656E-04  4208   0.814E-02    0.239E-03
RMM:   2    -0.243281584884E+02   -0.51681E-06   -0.37698E-06  3242   0.105E-02    0.698E-05
RMM:   3    -0.243281585683E+02   -0.79871E-07   -0.42009E-07  2089   0.399E-03    0.924E-05
RMM:   4    -0.243281586093E+02   -0.40980E-07   -0.17635E-07  2009   0.260E-03
   6 F= -.24328159E+02 E0= -.24320038E+02  d E =-.972624E-03
       N       E                     dE             d eps       ncg     rms          rms(c)
DAV:   1    -0.243282539197E+02   -0.95351E-04   -0.13841E-03  4332   0.175E-01    0.795E-03
RMM:   2    -0.243282502699E+02    0.36498E-05   -0.81877E-05  4056   0.394E-02    0.248E-03
RMM:   3    -0.243282537010E+02   -0.34311E-05   -0.47653E-06  3174   0.111E-02    0.349E-03
RMM:   4    -0.243282542571E+02   -0.55605E-06   -0.66815E-07  2126   0.508E-03
   7 F= -.24328254E+02 E0= -.24320130E+02  d E =-.956478E-04
       N       E                     dE             d eps       ncg     rms          rms(c)
DAV:   1    -0.243282656380E+02   -0.11937E-04   -0.30748E-04  4346   0.818E-02    0.638E-03
RMM:   2    -0.243282652517E+02    0.38626E-06   -0.20685E-05  4056   0.195E-02    0.716E-03
RMM:   3    -0.243282650391E+02    0.21259E-06   -0.93700E-07  2135   0.576E-03    0.597E-03
RMM:   4    -0.243282642873E+02    0.75184E-06   -0.54147E-07  2082   0.400E-03
   8 F= -.24328264E+02 E0= -.24320139E+02  d E =-.105678E-03
