 vasp.5.3.5 31Mar14 (build Nov 12 2015 11:19:23) complex                         
 executed on           CrayXC_GCC date 2016.07.03  13:54:37
 running on   96 total cores
 distrk:  each k-point on   24 cores,    4 groups
 distr:  one band on NCORES_PER_BAND=  12 cores,    2 groups


--------------------------------------------------------------------------------------------------------


 INCAR:
 POTCAR:   PAW_GGA Mg 05Jan2001                   

 ----------------------------------------------------------------------------- 
|                                                                             |
|           W    W    AA    RRRRR   N    N  II  N    N   GGGG   !!!           |
|           W    W   A  A   R    R  NN   N  II  NN   N  G    G  !!!           |
|           W    W  A    A  R    R  N N  N  II  N N  N  G       !!!           |
|           W WW W  AAAAAA  RRRRR   N  N N  II  N  N N  G  GGG   !            |
|           WW  WW  A    A  R   R   N   NN  II  N   NN  G    G                |
|           W    W  A    A  R    R  N    N  II  N    N   GGGG   !!!           |
|                                                                             |
|      You have enabled k-point parallelism (KPAR>1).                         |
|      This developmental code was originally  written by Paul Kent at ORNL,  |
|      and carefully double checked in Vienna.                                |
|      GW as well as linear response parallelism added by Martijn Marsman     |
|      and Georg Kresse.                                                      |
|      Carefully verify results versus KPAR=1.                                |
|      Report problems to Paul Kent and Vienna.                               |
|                                                                             |
 ----------------------------------------------------------------------------- 

 POTCAR:   PAW_GGA Mg 05Jan2001                   
   VRHFIN =Mg: s2p0                                                             
   LEXCH  = 91                                                                  
   EATOM  =    23.0823 eV,    1.6965 Ry                                         
                                                                                
   TITEL  = PAW_GGA Mg 05Jan2001                                                
   LULTRA =        F    use ultrasoft PP ?                                      
   IUNSCR =        1    unscreen: 0-lin 1-nonlin 2-no                           
   RPACOR =    2.000    partial core radius                                     
   POMASS =   24.305; ZVAL   =    2.000    mass and valenz                      
   RCORE  =    2.000    outmost cutoff radius                                   
   RWIGS  =    2.880; RWIGS  =    1.524    wigner-seitz radius (au A)           
   ENMAX  =  210.083; ENMIN  =  157.562 eV                                      
   ICORE  =        2    local potential                                         
   LCOR   =        T    correct aug charges                                     
   LPAW   =        T    paw PP                                                  
   EAUG   =  274.554                                                            
   DEXC   =    -.096                                                            
   RMAX   =    3.181    core radius for proj-oper                               
   RAUG   =    1.300    factor for augmentation sphere                          
   RDEP   =    2.025    core radius for depl-charge                             
   QCUT   =   -3.929; QGAM   =    7.859    optimization parameters              
                                                                                
   Description                                                                  
     l     E      TYP  RCUT    TYP  RCUT                                        
     0   .000     23  2.000                                                     
     0  2.000     23  2.000                                                     
     1   .000     23  2.000                                                     
     1  2.000     23  2.000                                                     
     2   .000     23  2.000                                                     
  local pseudopotential read in
  partial core-charges read in
  atomic valenz-charges read in
  non local Contribution for L=           0  read in
    real space projection operators read in
  non local Contribution for L=           0  read in
    real space projection operators read in
  non local Contribution for L=           1  read in
    real space projection operators read in
  non local Contribution for L=           1  read in
    real space projection operators read in
    PAW grid and wavefunctions read in

   number of l-projection  operators is LMAX  =           4
   number of lm-projection operators is LMMAX =           8

 PAW_GGA Mg 05Jan2001                   :
 energy of atom  1       EATOM=  -23.0823
 kinetic energy error for atom=    0.0001 (will be added to EATOM!!)


 POSCAR: Mg                                      
  positions in direct lattice
  No initial velocities read in
 exchange correlation table for  LEXCH =        7
   RHO(1)=    0.500       N(1)  =     2000
   RHO(2)=  100.500       N(2)  =     4000



--------------------------------------------------------------------------------------------------------


 ion  position               nearest neighbor table
   1  0.167  0.333  0.125-  14 3.14  10 3.14   5 3.14   5 3.14  11 3.14  13 3.17   9 3.17   7 3.19
                             7 3.19   3 3.19   3 3.19  12 3.20
   2  0.167  0.333  0.625-  13 3.14   9 3.14   6 3.14   6 3.14  12 3.14  14 3.17  10 3.17   8 3.19
                             8 3.19   4 3.19   4 3.19  11 3.20
   3  0.167  0.833  0.125-  16 3.14  12 3.14   7 3.14   7 3.14   9 3.14  15 3.17  11 3.17   5 3.19
                             5 3.19   1 3.19   1 3.19  10 3.20
   4  0.167  0.833  0.625-  15 3.14  11 3.14   8 3.14   8 3.14  10 3.14  16 3.17  12 3.17   6 3.19
                             6 3.19   2 3.19   2 3.19   9 3.20
   5  0.667  0.333  0.125-  10 3.14  14 3.14   1 3.14   1 3.14  15 3.14   9 3.17  13 3.17   3 3.19
                             3 3.19   7 3.19   7 3.19  16 3.20
   6  0.667  0.333  0.625-   9 3.14  13 3.14   2 3.14   2 3.14  16 3.14  10 3.17  14 3.17   4 3.19
                             4 3.19   8 3.19   8 3.19  15 3.20
   7  0.667  0.833  0.125-  12 3.14  16 3.14   3 3.14   3 3.14  13 3.14  11 3.17  15 3.17   1 3.19
                             1 3.19   5 3.19   5 3.19  14 3.20
   8  0.667  0.833  0.625-  11 3.14  15 3.14   4 3.14   4 3.14  14 3.14  12 3.17  16 3.17   2 3.19
                             2 3.19   6 3.19   6 3.19  13 3.20
   9  0.333  0.167  0.375-   6 3.14   2 3.14  13 3.14  13 3.14   3 3.14   5 3.17   1 3.17  15 3.19
                            15 3.19  11 3.19  11 3.19   4 3.20
  10  0.333  0.167  0.875-   5 3.14   1 3.14  14 3.14  14 3.14   4 3.14   6 3.17   2 3.17  16 3.19
                            16 3.19  12 3.19  12 3.19   3 3.20
  11  0.333  0.667  0.375-   8 3.14   4 3.14  15 3.14  15 3.14   1 3.14   7 3.17   3 3.17  13 3.19
                            13 3.19   9 3.19   9 3.19   2 3.20
  12  0.333  0.667  0.875-   7 3.14   3 3.14  16 3.14  16 3.14   2 3.14   8 3.17   4 3.17  14 3.19
                            14 3.19  10 3.19  10 3.19   1 3.20
  13  0.833  0.167  0.375-   2 3.14   6 3.14   9 3.14   9 3.14   7 3.14   1 3.17   5 3.17  11 3.19
                            11 3.19  15 3.19  15 3.19   8 3.20
  14  0.833  0.167  0.875-   1 3.14   5 3.14  10 3.14  10 3.14   8 3.14   2 3.17   6 3.17  12 3.19
                            12 3.19  16 3.19  16 3.19   7 3.20
  15  0.833  0.667  0.375-   4 3.14   8 3.14  11 3.14  11 3.14   5 3.14   3 3.17   7 3.17   9 3.19
                             9 3.19  13 3.19  13 3.19   6 3.20
  16  0.833  0.667  0.875-   3 3.14   7 3.14  12 3.14  12 3.14   6 3.14   4 3.17   8 3.17  10 3.19
                            10 3.19  14 3.19  14 3.19   5 3.20

  LATTYP: Found a base centered monoclinic cell.
 ALAT       =    11.0977341182
 B/A-ratio  =     0.5657745051
 C/A-ratio  =     1.3505678189
 COS(beta)  =    -0.6324770309
  
  Lattice vectors:
  
 A1 = (  -3.1394110813,   5.5485896495,  -0.0554858965)
 A2 = (   3.1394039472,   5.5485896237,  -0.0554858962)
 A3 = (   0.0000071341, -10.9941995442, -10.1870011048)


Analysis of symmetry for initial positions (statically):
=====================================================================
 Subroutine PRICEL returns following result:
 
  LATTYP: Found a base centered monoclinic cell.
 ALAT       =     5.5488670591
 B/A-ratio  =     0.5657744881
 C/A-ratio  =     1.3505678189
 COS(beta)  =    -0.6324770339
  
  Lattice vectors:
  
 A1 = (  -1.5697055406,   2.7742948247,  -0.0277429482)
 A2 = (   1.5697018794,   2.7742948118,  -0.0277429481)
 A3 = (   0.0000036612,  -5.4970997721,  -5.0935005524)
 
   8 primitive cells build up your supercell.
 

 Routine SETGRP: Setting up the symmetry group for a 
 base centered monoclinic supercell.


 Subroutine GETGRP returns: Found  4 space group operations
 (whereof  4 operations were pure point group operations)
 out of a pool of  4 trial point group operations.


The static configuration has the point symmetry C_2h.


Analysis of symmetry for dynamics (positions and initial velocities):
=====================================================================
 Subroutine PRICEL returns following result:
 
  LATTYP: Found a base centered monoclinic cell.
 ALAT       =     5.5488670591
 B/A-ratio  =     0.5657744881
 C/A-ratio  =     1.3505678189
 COS(beta)  =    -0.6324770339
  
  Lattice vectors:
  
 A1 = (  -1.5697055406,   2.7742948247,  -0.0277429482)
 A2 = (   1.5697018794,   2.7742948118,  -0.0277429481)
 A3 = (   0.0000036612,  -5.4970997721,  -5.0935005524)
 
   8 primitive cells build up your supercell.
 

 Routine SETGRP: Setting up the symmetry group for a 
 base centered monoclinic supercell.


 Subroutine GETGRP returns: Found  4 space group operations
 (whereof  4 operations were pure point group operations)
 out of a pool of  4 trial point group operations.


The dynamic configuration has the point symmetry C_2h.


 KPOINTS: Automatic                               

Automatic generation of k-mesh.
Space group operators:
 irot       det(A)        alpha          n_x          n_y          n_z        tau_x        tau_y        tau_z
    1     1.000000     0.000000     1.000000     0.000000     0.000000     0.000000     0.000000    -0.000000
    2    -1.000000     0.000000     1.000000     0.000000     0.000000     0.000000     0.000000    -0.000000
    3     1.000000   180.000000     1.000000     0.000001     0.000000     0.000000     0.000000    -0.000000
    4    -1.000000   180.000000     1.000000     0.000001     0.000000     0.000000     0.000000    -0.000000
 
 Subroutine IBZKPT returns following result:
 ===========================================
 
 Found     78 irreducible k-points:
 
 Following reciprocal coordinates:
            Coordinates               Weight
  0.000000  0.000000  0.000000      1.000000
  0.125000  0.000000  0.000000      4.000000
  0.250000  0.000000  0.000000      4.000000
  0.375000  0.000000  0.000000      4.000000
  0.500000  0.000000  0.000000      2.000000
  0.000000  0.125000  0.000000      2.000000
  0.125000  0.125000  0.000000      4.000000
  0.250000  0.125000  0.000000      4.000000
  0.375000  0.125000  0.000000      4.000000
  0.500000  0.125000  0.000000      4.000000
 -0.375000  0.125000  0.000000      4.000000
 -0.250000  0.125000  0.000000      2.000000
  0.000000  0.250000  0.000000      2.000000
  0.125000  0.250000  0.000000      4.000000
  0.250000  0.250000  0.000000      4.000000
  0.375000  0.250000  0.000000      4.000000
  0.500000  0.250000  0.000000      2.000000
  0.000000  0.375000  0.000000      2.000000
  0.125000  0.375000  0.000000      4.000000
  0.250000  0.375000  0.000000      2.000000
  0.000000  0.500000  0.000000      1.000000
  0.000000  0.000000  0.250000      2.000000
  0.125000  0.000000  0.250000      4.000000
  0.250000  0.000000  0.250000      4.000000
  0.375000  0.000000  0.250000      4.000000
  0.500000  0.000000  0.250000      4.000000
 -0.375000  0.000000  0.250000      4.000000
 -0.250000  0.000000  0.250000      4.000000
 -0.125000  0.000000  0.250000      4.000000
  0.000000  0.125000  0.250000      2.000000
  0.125000  0.125000  0.250000      4.000000
  0.250000  0.125000  0.250000      4.000000
  0.375000  0.125000  0.250000      4.000000
  0.500000  0.125000  0.250000      4.000000
 -0.375000  0.125000  0.250000      4.000000
 -0.250000  0.125000  0.250000      4.000000
  0.000000  0.250000  0.250000      2.000000
  0.125000  0.250000  0.250000      4.000000
  0.250000  0.250000  0.250000      4.000000
  0.375000  0.250000  0.250000      4.000000
  0.500000  0.250000  0.250000      4.000000
 -0.375000  0.250000  0.250000      4.000000
  0.000000  0.375000  0.250000      2.000000
  0.125000  0.375000  0.250000      4.000000
  0.250000  0.375000  0.250000      4.000000
  0.375000  0.375000  0.250000      4.000000
  0.500000  0.375000  0.250000      4.000000
  0.000000  0.500000  0.250000      2.000000
  0.125000  0.500000  0.250000      4.000000
  0.250000  0.500000  0.250000      4.000000
  0.375000  0.500000  0.250000      4.000000
  0.000000 -0.375000  0.250000      2.000000
  0.125000 -0.375000  0.250000      4.000000
  0.250000 -0.375000  0.250000      4.000000
  0.000000 -0.250000  0.250000      2.000000
  0.125000 -0.250000  0.250000      4.000000
  0.000000 -0.125000  0.250000      2.000000
  0.000000  0.000000  0.500000      1.000000
  0.125000  0.000000  0.500000      4.000000
  0.250000  0.000000  0.500000      4.000000
  0.375000  0.000000  0.500000      4.000000
  0.500000  0.000000  0.500000      2.000000
  0.000000  0.125000  0.500000      2.000000
  0.125000  0.125000  0.500000      4.000000
  0.250000  0.125000  0.500000      4.000000
  0.375000  0.125000  0.500000      4.000000
  0.500000  0.125000  0.500000      4.000000
 -0.375000  0.125000  0.500000      4.000000
 -0.250000  0.125000  0.500000      2.000000
  0.000000  0.250000  0.500000      2.000000
  0.125000  0.250000  0.500000      4.000000
  0.250000  0.250000  0.500000      4.000000
  0.375000  0.250000  0.500000      4.000000
  0.500000  0.250000  0.500000      2.000000
  0.000000  0.375000  0.500000      2.000000
  0.125000  0.375000  0.500000      4.000000
  0.250000  0.375000  0.500000      2.000000
  0.000000  0.500000  0.500000      1.000000
 
 Following cartesian coordinates:
            Coordinates               Weight
  0.000000  0.000000  0.000000      1.000000
  0.019908  0.011265  0.000113      4.000000
  0.039816  0.022531  0.000225      4.000000
  0.059725  0.033796  0.000338      4.000000
  0.079633  0.045061  0.000451      2.000000
  0.000000  0.022531  0.000225      2.000000
  0.019908  0.033796  0.000338      4.000000
  0.039816  0.045061  0.000451      4.000000
  0.059725  0.056326  0.000563      4.000000
  0.079633  0.067592  0.000676      4.000000
 -0.059725 -0.011265 -0.000113      4.000000
 -0.039816 -0.000000 -0.000000      2.000000
  0.000000  0.045061  0.000451      2.000000
  0.019908  0.056326  0.000563      4.000000
  0.039816  0.067592  0.000676      4.000000
  0.059725  0.078857  0.000789      4.000000
  0.079633  0.090122  0.000901      2.000000
  0.000000  0.067592  0.000676      2.000000
  0.019908  0.078857  0.000789      4.000000
  0.039816  0.090122  0.000901      2.000000
  0.000000  0.090122  0.000901      1.000000
  0.000000  0.000243  0.024279      2.000000
  0.019908  0.011508  0.024392      4.000000
  0.039816  0.022773  0.024504      4.000000
  0.059725  0.034039  0.024617      4.000000
  0.079633  0.045304  0.024730      4.000000
 -0.059725 -0.033553  0.023941      4.000000
 -0.039816 -0.022288  0.024054      4.000000
 -0.019908 -0.011022  0.024166      4.000000
  0.000000  0.022773  0.024504      2.000000
  0.019908  0.034039  0.024617      4.000000
  0.039816  0.045304  0.024730      4.000000
  0.059725  0.056569  0.024842      4.000000
  0.079633  0.067834  0.024955      4.000000
 -0.059725 -0.011022  0.024166      4.000000
 -0.039816  0.000243  0.024279      4.000000
  0.000000  0.045304  0.024730      2.000000
  0.019908  0.056569  0.024842      4.000000
  0.039816  0.067834  0.024955      4.000000
  0.059725  0.079100  0.025068      4.000000
  0.079633  0.090365  0.025180      4.000000
 -0.059725  0.011508  0.024392      4.000000
  0.000000  0.067834  0.024955      2.000000
  0.019908  0.079100  0.025068      4.000000
  0.039816  0.090365  0.025180      4.000000
  0.059725  0.101630  0.025293      4.000000
  0.079633  0.112895  0.025406      4.000000
  0.000000  0.090365  0.025180      2.000000
  0.019908  0.101630  0.025293      4.000000
  0.039816  0.112895  0.025406      4.000000
  0.059725  0.124161  0.025518      4.000000
 -0.000000 -0.067349  0.023603      2.000000
  0.019908 -0.056083  0.023716      4.000000
  0.039816 -0.044818  0.023828      4.000000
 -0.000000 -0.044818  0.023828      2.000000
  0.019908 -0.033553  0.023941      4.000000
 -0.000000 -0.022288  0.024054      2.000000
  0.000000  0.000486  0.048558      1.000000
  0.019908  0.011751  0.048671      4.000000
  0.039816  0.023016  0.048783      4.000000
  0.059725  0.034281  0.048896      4.000000
  0.079633  0.045547  0.049009      2.000000
  0.000000  0.023016  0.048783      2.000000
  0.019908  0.034281  0.048896      4.000000
  0.039816  0.045547  0.049009      4.000000
  0.059725  0.056812  0.049121      4.000000
  0.079633  0.068077  0.049234      4.000000
 -0.059725 -0.010780  0.048445      4.000000
 -0.039816  0.000486  0.048558      2.000000
  0.000000  0.045547  0.049009      2.000000
  0.019908  0.056812  0.049121      4.000000
  0.039816  0.068077  0.049234      4.000000
  0.059725  0.079342  0.049347      4.000000
  0.079633  0.090608  0.049459      2.000000
  0.000000  0.068077  0.049234      2.000000
  0.019908  0.079342  0.049347      4.000000
  0.039816  0.090608  0.049459      2.000000
  0.000000  0.090608  0.049459      1.000000
 


--------------------------------------------------------------------------------------------------------




 Dimension of arrays:
   k-points           NKPTS =     78   k-points in BZ     NKDIM =     78   number of bands    NBANDS=     26
   number of dos      NEDOS =    301   number of ions     NIONS =     16
   non local maximal  LDIM  =      4   non local SUM 2l+1 LMDIM =      8
   total plane-waves  NPLWV =  69984
   max r-space proj   IRMAX =      1   max aug-charges    IRDMAX=   8486
   dimension x,y,z NGX =    36 NGY =   36 NGZ =   54
   dimension x,y,z NGXF=    72 NGYF=   72 NGZF=  108
   support grid    NGXF=    72 NGYF=   72 NGZF=  108
   ions per type =              16
 NGX,Y,Z   is equivalent  to a cutoff of   9.53,  9.39,  8.72 a.u.
 NGXF,Y,Z  is equivalent  to a cutoff of  19.06, 18.77, 17.43 a.u.


 I would recommend the setting:
   dimension x,y,z NGX =    33 NGY =   33 NGZ =   53
 SYSTEM =  Mg                                      
 POSCAR =  Mg                                      

 Startparameter for this run:
   NWRITE =      2    write-flag & timer
   PREC   = n         normal or accurate (medium, high low for compatibility)
   ISTART =      0    job   : 0-new  1-cont  2-samecut
   ICHARG =      2    charge: 1-file 2-atom 10-const
   ISPIN  =      1    spin polarized calculation?
   LNONCOLLINEAR =      F non collinear calculations
   LSORBIT =      F    spin-orbit coupling
   INIWAV =      1    electr: 0-lowe 1-rand  2-diag
   LASPH  =      F    aspherical Exc in radial PAW
   METAGGA=      F    non-selfconsistent MetaGGA calc.

 Electronic Relaxation 1
   ENCUT  =  450.0 eV  33.07 Ry    5.75 a.u.  10.86 11.03 17.81*2*pi/ulx,y,z
   ENINI  =  450.0     initial cutoff
   ENAUG  =  274.6 eV  augmentation charge cutoff
   NELM   =     40;   NELMIN=  4; NELMDL= -5     # of ELM steps 
   EDIFF  = 0.1E-05   stopping-criterion for ELM
   LREAL  =      F    real-space projection
   NLSPLINE    = F    spline interpolate recip. space projectors
   LCOMPAT=      F    compatible to vasp.4.4
   GGA_COMPAT  = T    GGA compatible to vasp.4.4-vasp.4.6
   LMAXPAW     = -100 max onsite density
   LMAXMIX     =    2 max onsite mixed and CHGCAR
   VOSKOWN=      0    Vosko Wilk Nusair interpolation
   ROPT   =    0.00000
 Ionic relaxation
   EDIFFG = -.1E-03   stopping-criterion for IOM
   NSW    =    100    number of steps for IOM
   NBLOCK =      1;   KBLOCK =    100    inner block; outer block 
   IBRION =      2    ionic relax: 0-MD 1-quasi-New 2-CG
   NFREE  =      1    steps in history (QN), initial steepest desc. (CG)
   ISIF   =      2    stress and relaxation
   IWAVPR =     11    prediction:  0-non 1-charg 2-wave 3-comb
   ISYM   =      2    0-nonsym 1-usesym 2-fastsym
   LCORR  =      T    Harris-Foulkes like correction to forces

   POTIM  = 0.3000    time-step for ionic-motion
   TEIN   =    0.0    initial temperature
   TEBEG  =    0.0;   TEEND  =   0.0 temperature during run
   SMASS  =  -3.00    Nose mass-parameter (am)
   estimated Nose-frequenzy (Omega)   =  0.10E-29 period in steps =****** mass=  -0.901E-27a.u.
   SCALEE = 1.0000    scale energy and forces
   NPACO  =    256;   APACO  = 16.0  distance and # of slots for P.C.
   PSTRESS=    0.0 pullay stress

  Mass of Ions in am
   POMASS =  24.30
  Ionic Valenz
   ZVAL   =   2.00
  Atomic Wigner-Seitz radii
   RWIGS  =  -1.00
  virtual crystal weights 
   VCA    =   1.00
   NELECT =      32.0000    total number of electrons
   NUPDOWN=      -1.0000    fix difference up-down

 DOS related values:
   EMIN   =  10.00;   EMAX   =-10.00  energy-range for DOS
   EFERMI =   0.00
   ISMEAR =    -1;   SIGMA  =   0.03  broadening in eV -4-tet -1-fermi 0-gaus

 Electronic relaxation 2 (details)
   IALGO  =     68    algorithm
   LDIAG  =      T    sub-space diagonalisation (order eigenvalues)
   LSUBROT=      F    optimize rotation matrix (better conditioning)
   TURBO    =      0    0=normal 1=particle mesh
   IRESTART =      0    0=no restart 2=restart with 2 vectors
   NREBOOT  =      0    no. of reboots
   NMIN     =      0    reboot dimension
   EREF     =   0.00    reference energy to select bands
   IMIX   =      4    mixing-type and parameters
     AMIX     =   0.40;   BMIX     =  1.00
     AMIX_MAG =   1.60;   BMIX_MAG =  1.00
     AMIN     =   0.10
     WC   =   100.;   INIMIX=   1;  MIXPRE=   1;  MAXMIX=  40

 Intra band minimization:
   WEIMIN = 0.0010     energy-eigenvalue tresh-hold
   EBREAK =  0.96E-08  absolut break condition
   DEPER  =   0.30     relativ break condition  

   TIME   =   0.40     timestep for ELM

  volume/ion in A,a.u.               =      22.42       151.30
  Fermi-wavevector in a.u.,A,eV,Ry     =   0.731479  1.382295  7.279957  0.535062
  Thomas-Fermi vector in A             =   1.823706

 Write flags
   LWAVE  =      F    write WAVECAR
   LCHARG =      F    write CHGCAR
   LVTOT  =      F    write LOCPOT, total local potential
   LVHAR  =      F    write LOCPOT, Hartree potential only
   LELF   =      F    write electronic localiz. function (ELF)
   LORBIT =      0    0 simple, 1 ext, 2 COOP (PROOUT)


 Dipole corrections
   LMONO  =      F    monopole corrections only (constant potential shift)
   LDIPOL =      F    correct potential (dipole corrections)
   IDIPOL =      0    1-x, 2-y, 3-z, 4-all directions 
   EPSILON=  1.0000000 bulk dielectric constant

 Exchange correlation treatment:
   GGA     =    91    GGA type
   LEXCH   =     7    internal setting for exchange type
   VOSKOWN=      0    Vosko Wilk Nusair interpolation
   LHFCALC =     F    Hartree Fock is set to
   LHFONE  =     F    Hartree Fock one center treatment
   AEXX    =    0.0000 exact exchange contribution

 Linear response parameters
   LEPSILON=     F    determine dielectric tensor
   LRPA    =     F    only Hartree local field effects (RPA)
   LNABLA  =     F    use nabla operator in PAW spheres
   LVEL    =     F    velocity operator in full k-point grid
   LINTERFAST=   F  fast interpolation
   KINTER  =     0    interpolate to denser k-point grid
   CSHIFT  =0.1000    complex shift for real part using Kramers Kronig
   OMEGAMAX=  -1.0    maximum frequency
   DEG_THRESHOLD= 0.2000000E-02 threshold for treating states as degnerate
   RTIME   =    0.100 relaxation time in fs

 Orbital magnetization related:
   ORBITALMAG=     F  switch on orbital magnetization
   LCHIMAG   =     F  perturbation theory with respect to B field
   DQ        =  0.001000  dq finite difference perturbation B field



--------------------------------------------------------------------------------------------------------


 conjugate gradient relaxation of ions
 charge density and potential will be updated during run
 non-spin polarized calculation
 RMM-DIIS sequential band-by-band and
  variant of blocked Davidson during initial phase
 perform sub-space diagonalisation
    before iterative eigenvector-optimisation
 modified Broyden-mixing scheme, WC =      100.0
 initial mixing is a Kerker type mixing with AMIX =  0.4000 and BMIX =      1.0000
 Hartree-type preconditioning will be used
 using additional bands           10
 reciprocal scheme for non local part
 use partial core corrections
 calculate Harris-corrections to forces   (improved forces if not selfconsistent)
 use gradient corrections 
 use of overlap-Matrix (Vanderbilt PP)
 Fermi-smearing in eV        SIGMA  =   0.03


--------------------------------------------------------------------------------------------------------


  energy-cutoff  :      450.00
  volume of cell :      358.73
      direct lattice vectors                 reciprocal lattice vectors
     6.278815029 -0.000000026  0.000000000     0.159265721  0.090122104  0.000901221
    -3.139411081  5.548589649 -0.055485896     0.000000001  0.180244004  0.001802440
     0.000000000 -0.102979729 10.297972898     0.000000000  0.000971162  0.097116201

  length of vectors
     6.278815029  6.375408043 10.298487783     0.182998294  0.180253015  0.097121057



 k-points in units of 2pi/SCALE and weight: Automatic                               
   0.00000000  0.00000000  0.00000000       0.004
   0.01990822  0.01126526  0.00011265       0.016
   0.03981643  0.02253053  0.00022531       0.016
   0.05972465  0.03379579  0.00033796       0.016
   0.07963286  0.04506105  0.00045061       0.008
   0.00000000  0.02253050  0.00022531       0.008
   0.01990822  0.03379576  0.00033796       0.016
   0.03981643  0.04506103  0.00045061       0.016
   0.05972465  0.05632629  0.00056326       0.016
   0.07963286  0.06759155  0.00067592       0.016
  -0.05972465 -0.01126529 -0.00011265       0.016
  -0.03981643 -0.00000003 -0.00000000       0.008
   0.00000000  0.04506100  0.00045061       0.008
   0.01990822  0.05632626  0.00056326       0.016
   0.03981643  0.06759153  0.00067592       0.016
   0.05972465  0.07885679  0.00078857       0.016
   0.07963286  0.09012205  0.00090122       0.008
   0.00000000  0.06759150  0.00067592       0.008
   0.01990822  0.07885676  0.00078857       0.016
   0.03981643  0.09012203  0.00090122       0.008
   0.00000000  0.09012200  0.00090122       0.004
   0.00000000  0.00024279  0.02427905       0.008
   0.01990822  0.01150805  0.02439170       0.016
   0.03981643  0.02277332  0.02450436       0.016
   0.05972465  0.03403858  0.02461701       0.016
   0.07963286  0.04530384  0.02472966       0.016
  -0.05972465 -0.03355300  0.02394109       0.016
  -0.03981643 -0.02228774  0.02405375       0.016
  -0.01990822 -0.01102247  0.02416640       0.016
   0.00000000  0.02277329  0.02450436       0.008
   0.01990822  0.03403855  0.02461701       0.016
   0.03981643  0.04530382  0.02472966       0.016
   0.05972465  0.05656908  0.02484231       0.016
   0.07963286  0.06783434  0.02495497       0.016
  -0.05972465 -0.01102250  0.02416640       0.016
  -0.03981643  0.00024276  0.02427905       0.016
   0.00000000  0.04530379  0.02472966       0.008
   0.01990822  0.05656905  0.02484231       0.016
   0.03981643  0.06783432  0.02495497       0.016
   0.05972465  0.07909958  0.02506762       0.016
   0.07963286  0.09036484  0.02518027       0.016
  -0.05972465  0.01150800  0.02439170       0.016
   0.00000000  0.06783429  0.02495497       0.008
   0.01990822  0.07909955  0.02506762       0.016
   0.03981643  0.09036482  0.02518027       0.016
   0.05972465  0.10163008  0.02529292       0.016
   0.07963286  0.11289534  0.02540558       0.016
   0.00000000  0.09036479  0.02518027       0.008
   0.01990822  0.10163006  0.02529292       0.016
   0.03981643  0.11289532  0.02540558       0.016
   0.05972465  0.12416058  0.02551823       0.016
  -0.00000000 -0.06734871  0.02360314       0.008
   0.01990821 -0.05608345  0.02371579       0.016
   0.03981643 -0.04481818  0.02382844       0.016
  -0.00000000 -0.04481821  0.02382844       0.008
   0.01990821 -0.03355295  0.02394109       0.016
  -0.00000000 -0.02228771  0.02405375       0.008
   0.00000000  0.00048558  0.04855810       0.004
   0.01990822  0.01175084  0.04867075       0.016
   0.03981643  0.02301611  0.04878341       0.016
   0.05972465  0.03428137  0.04889606       0.016
   0.07963286  0.04554663  0.04900871       0.008
   0.00000000  0.02301608  0.04878341       0.008
   0.01990822  0.03428134  0.04889606       0.016
   0.03981643  0.04554661  0.04900871       0.016
   0.05972465  0.05681187  0.04912136       0.016
   0.07963286  0.06807713  0.04923402       0.016
  -0.05972465 -0.01077971  0.04844545       0.016
  -0.03981643  0.00048556  0.04855810       0.008
   0.00000000  0.04554658  0.04900871       0.008
   0.01990822  0.05681184  0.04912136       0.016
   0.03981643  0.06807711  0.04923402       0.016
   0.05972465  0.07934237  0.04934667       0.016
   0.07963286  0.09060763  0.04945932       0.008
   0.00000000  0.06807708  0.04923402       0.008
   0.01990822  0.07934235  0.04934667       0.016
   0.03981643  0.09060761  0.04945932       0.008
   0.00000000  0.09060758  0.04945932       0.004

 k-points in reciprocal lattice and weights: Automatic                               
   0.00000000  0.00000000  0.00000000       0.004
   0.12500000  0.00000000  0.00000000       0.016
   0.25000000  0.00000000  0.00000000       0.016
   0.37500000  0.00000000  0.00000000       0.016
   0.50000000  0.00000000  0.00000000       0.008
   0.00000000  0.12500000  0.00000000       0.008
   0.12500000  0.12500000  0.00000000       0.016
   0.25000000  0.12500000  0.00000000       0.016
   0.37500000  0.12500000  0.00000000       0.016
   0.50000000  0.12500000  0.00000000       0.016
  -0.37500000  0.12500000  0.00000000       0.016
  -0.25000000  0.12500000  0.00000000       0.008
   0.00000000  0.25000000  0.00000000       0.008
   0.12500000  0.25000000  0.00000000       0.016
   0.25000000  0.25000000  0.00000000       0.016
   0.37500000  0.25000000  0.00000000       0.016
   0.50000000  0.25000000  0.00000000       0.008
   0.00000000  0.37500000  0.00000000       0.008
   0.12500000  0.37500000  0.00000000       0.016
   0.25000000  0.37500000  0.00000000       0.008
   0.00000000  0.50000000  0.00000000       0.004
   0.00000000  0.00000000  0.25000000       0.008
   0.12500000  0.00000000  0.25000000       0.016
   0.25000000  0.00000000  0.25000000       0.016
   0.37500000  0.00000000  0.25000000       0.016
   0.50000000  0.00000000  0.25000000       0.016
  -0.37500000  0.00000000  0.25000000       0.016
  -0.25000000  0.00000000  0.25000000       0.016
  -0.12500000  0.00000000  0.25000000       0.016
   0.00000000  0.12500000  0.25000000       0.008
   0.12500000  0.12500000  0.25000000       0.016
   0.25000000  0.12500000  0.25000000       0.016
   0.37500000  0.12500000  0.25000000       0.016
   0.50000000  0.12500000  0.25000000       0.016
  -0.37500000  0.12500000  0.25000000       0.016
  -0.25000000  0.12500000  0.25000000       0.016
   0.00000000  0.25000000  0.25000000       0.008
   0.12500000  0.25000000  0.25000000       0.016
   0.25000000  0.25000000  0.25000000       0.016
   0.37500000  0.25000000  0.25000000       0.016
   0.50000000  0.25000000  0.25000000       0.016
  -0.37500000  0.25000000  0.25000000       0.016
   0.00000000  0.37500000  0.25000000       0.008
   0.12500000  0.37500000  0.25000000       0.016
   0.25000000  0.37500000  0.25000000       0.016
   0.37500000  0.37500000  0.25000000       0.016
   0.50000000  0.37500000  0.25000000       0.016
   0.00000000  0.50000000  0.25000000       0.008
   0.12500000  0.50000000  0.25000000       0.016
   0.25000000  0.50000000  0.25000000       0.016
   0.37500000  0.50000000  0.25000000       0.016
   0.00000000 -0.37500000  0.25000000       0.008
   0.12500000 -0.37500000  0.25000000       0.016
   0.25000000 -0.37500000  0.25000000       0.016
   0.00000000 -0.25000000  0.25000000       0.008
   0.12500000 -0.25000000  0.25000000       0.016
   0.00000000 -0.12500000  0.25000000       0.008
   0.00000000  0.00000000  0.50000000       0.004
   0.12500000  0.00000000  0.50000000       0.016
   0.25000000  0.00000000  0.50000000       0.016
   0.37500000  0.00000000  0.50000000       0.016
   0.50000000  0.00000000  0.50000000       0.008
   0.00000000  0.12500000  0.50000000       0.008
   0.12500000  0.12500000  0.50000000       0.016
   0.25000000  0.12500000  0.50000000       0.016
   0.37500000  0.12500000  0.50000000       0.016
   0.50000000  0.12500000  0.50000000       0.016
  -0.37500000  0.12500000  0.50000000       0.016
  -0.25000000  0.12500000  0.50000000       0.008
   0.00000000  0.25000000  0.50000000       0.008
   0.12500000  0.25000000  0.50000000       0.016
   0.25000000  0.25000000  0.50000000       0.016
   0.37500000  0.25000000  0.50000000       0.016
   0.50000000  0.25000000  0.50000000       0.008
   0.00000000  0.37500000  0.50000000       0.008
   0.12500000  0.37500000  0.50000000       0.016
   0.25000000  0.37500000  0.50000000       0.008
   0.00000000  0.50000000  0.50000000       0.004

 position of ions in fractional coordinates (direct lattice) 
   0.16666649  0.33333349  0.12500000
   0.16666649  0.33333349  0.62500000
   0.16666649  0.83333349  0.12500000
   0.16666649  0.83333349  0.62500000
   0.66666651  0.33333349  0.12500000
   0.66666651  0.33333349  0.62500000
   0.66666651  0.83333349  0.12500000
   0.66666651  0.83333349  0.62500000
   0.33333349  0.16666649  0.37500000
   0.33333349  0.16666649  0.87500000
   0.33333349  0.66666651  0.37500000
   0.33333349  0.66666651  0.87500000
   0.83333349  0.16666649  0.37500000
   0.83333349  0.16666649  0.87500000
   0.83333349  0.66666651  0.37500000
   0.83333349  0.66666651  0.87500000

 position of ions in cartesian coordinates  (Angst):
  -0.00000278  1.83665829  1.26875130
  -0.00000278  1.78516843  6.41773775
  -1.56970832  4.61095312  1.24100836
  -1.56970832  4.55946325  6.38999481
   3.13940483  1.83665828  1.26875130
   3.13940483  1.78516842  6.41773775
   1.56969929  4.61095310  1.24100836
   1.56969929  4.55946324  6.38999481
   1.56970470  0.88614657  3.85249220
   1.56970470  0.83465671  9.00147865
  -0.00000088  3.66044148  3.82474925
  -0.00000088  3.60895161  8.97373570
   4.70911222  0.88614656  3.85249220
   4.70911222  0.83465669  9.00147865
   3.13940663  3.66044147  3.82474925
   3.13940663  3.60895160  8.97373570



--------------------------------------------------------------------------------------------------------


 k-point  1 :   0.0000 0.0000 0.0000  plane waves:    7713
 k-point  2 :   0.1250 0.0000 0.0000  plane waves:    7746
 k-point  3 :   0.2500 0.0000 0.0000  plane waves:    7760
 k-point  4 :   0.3750 0.0000 0.0000  plane waves:    7774
 k-point  5 :   0.5000 0.0000 0.0000  plane waves:    7792
 k-point  6 :   0.0000 0.1250 0.0000  plane waves:    7730
 k-point  7 :   0.1250 0.1250 0.0000  plane waves:    7775
 k-point  8 :   0.2500 0.1250 0.0000  plane waves:    7775
 k-point  9 :   0.3750 0.1250 0.0000  plane waves:    7796
 k-point 10 :   0.5000 0.1250 0.0000  plane waves:    7787
 k-point 11 :  -0.3750 0.1250 0.0000  plane waves:    7786
 k-point 12 :  -0.2500 0.1250 0.0000  plane waves:    7775
 k-point 13 :   0.0000 0.2500 0.0000  plane waves:    7761
 k-point 14 :   0.1250 0.2500 0.0000  plane waves:    7779
 k-point 15 :   0.2500 0.2500 0.0000  plane waves:    7787
 k-point 16 :   0.3750 0.2500 0.0000  plane waves:    7784
 k-point 17 :   0.5000 0.2500 0.0000  plane waves:    7795
 k-point 18 :   0.0000 0.3750 0.0000  plane waves:    7801
 k-point 19 :   0.1250 0.3750 0.0000  plane waves:    7784
 k-point 20 :   0.2500 0.3750 0.0000  plane waves:    7781
 k-point 21 :   0.0000 0.5000 0.0000  plane waves:    7784
 k-point 22 :   0.0000 0.0000 0.2500  plane waves:    7742
 k-point 23 :   0.1250 0.0000 0.2500  plane waves:    7750
 k-point 24 :   0.2500 0.0000 0.2500  plane waves:    7771
 k-point 25 :   0.3750 0.0000 0.2500  plane waves:    7765
 k-point 26 :   0.5000 0.0000 0.2500  plane waves:    7779
 k-point 27 :  -0.3750 0.0000 0.2500  plane waves:    7790
 k-point 28 :  -0.2500 0.0000 0.2500  plane waves:    7768
 k-point 29 :  -0.1250 0.0000 0.2500  plane waves:    7729
 k-point 30 :   0.0000 0.1250 0.2500  plane waves:    7754
 k-point 31 :   0.1250 0.1250 0.2500  plane waves:    7771
 k-point 32 :   0.2500 0.1250 0.2500  plane waves:    7765
 k-point 33 :   0.3750 0.1250 0.2500  plane waves:    7775
 k-point 34 :   0.5000 0.1250 0.2500  plane waves:    7779
 k-point 35 :  -0.3750 0.1250 0.2500  plane waves:    7780
 k-point 36 :  -0.2500 0.1250 0.2500  plane waves:    7772
 k-point 37 :   0.0000 0.2500 0.2500  plane waves:    7774
 k-point 38 :   0.1250 0.2500 0.2500  plane waves:    7767
 k-point 39 :   0.2500 0.2500 0.2500  plane waves:    7788
 k-point 40 :   0.3750 0.2500 0.2500  plane waves:    7781
 k-point 41 :   0.5000 0.2500 0.2500  plane waves:    7781
 k-point 42 :  -0.3750 0.2500 0.2500  plane waves:    7782
 k-point 43 :   0.0000 0.3750 0.2500  plane waves:    7791
 k-point 44 :   0.1250 0.3750 0.2500  plane waves:    7784
 k-point 45 :   0.2500 0.3750 0.2500  plane waves:    7794
 k-point 46 :   0.3750 0.3750 0.2500  plane waves:    7787
 k-point 47 :   0.5000 0.3750 0.2500  plane waves:    7788
 k-point 48 :   0.0000 0.5000 0.2500  plane waves:    7798
 k-point 49 :   0.1250 0.5000 0.2500  plane waves:    7793
 k-point 50 :   0.2500 0.5000 0.2500  plane waves:    7783
 k-point 51 :   0.3750 0.5000 0.2500  plane waves:    7780
 k-point 52 :   0.0000-0.3750 0.2500  plane waves:    7789
 k-point 53 :   0.1250-0.3750 0.2500  plane waves:    7794
 k-point 54 :   0.2500-0.3750 0.2500  plane waves:    7772
 k-point 55 :   0.0000-0.2500 0.2500  plane waves:    7796
 k-point 56 :   0.1250-0.2500 0.2500  plane waves:    7758
 k-point 57 :   0.0000-0.1250 0.2500  plane waves:    7742
 k-point 58 :   0.0000 0.0000 0.5000  plane waves:    7762
 k-point 59 :   0.1250 0.0000 0.5000  plane waves:    7748
 k-point 60 :   0.2500 0.0000 0.5000  plane waves:    7760
 k-point 61 :   0.3750 0.0000 0.5000  plane waves:    7770
 k-point 62 :   0.5000 0.0000 0.5000  plane waves:    7786
 k-point 63 :   0.0000 0.1250 0.5000  plane waves:    7773
 k-point 64 :   0.1250 0.1250 0.5000  plane waves:    7771
 k-point 65 :   0.2500 0.1250 0.5000  plane waves:    7776
 k-point 66 :   0.3750 0.1250 0.5000  plane waves:    7795
 k-point 67 :   0.5000 0.1250 0.5000  plane waves:    7785
 k-point 68 :  -0.3750 0.1250 0.5000  plane waves:    7784
 k-point 69 :  -0.2500 0.1250 0.5000  plane waves:    7768
 k-point 70 :   0.0000 0.2500 0.5000  plane waves:    7779
 k-point 71 :   0.1250 0.2500 0.5000  plane waves:    7775
 k-point 72 :   0.2500 0.2500 0.5000  plane waves:    7793
 k-point 73 :   0.3750 0.2500 0.5000  plane waves:    7779
 k-point 74 :   0.5000 0.2500 0.5000  plane waves:    7788
 k-point 75 :   0.0000 0.3750 0.5000  plane waves:    7789
 k-point 76 :   0.1250 0.3750 0.5000  plane waves:    7778
 k-point 77 :   0.2500 0.3750 0.5000  plane waves:    7790
 k-point 78 :   0.0000 0.5000 0.5000  plane waves:    7776

 maximum and minimum number of plane-waves per node :       679      619

 maximum number of plane-waves:      7801
 maximum index in each direction: 
   IXMAX=   11   IYMAX=   11   IZMAX=   17
   IXMIN=  -11   IYMIN=  -11   IZMIN=  -18

 WARNING: aliasing errors must be expected set NGX to  46 to avoid them
 WARNING: aliasing errors must be expected set NGY to  46 to avoid them
 WARNING: aliasing errors must be expected set NGZ to  72 to avoid them
 aliasing errors are usually negligible using standard VASP settings
 and one can safely disregard these warnings

 parallel 3D FFT for wavefunctions:
    minimum data exchange during FFTs selected (reduces bandwidth)
 parallel 3D FFT for charge:
    minimum data exchange during FFTs selected (reduces bandwidth)


 total amount of memory used by VASP on root node    46524. kBytes
========================================================================

   base      :      30000. kBytes
   nonl-proj :       3400. kBytes
   fftplans  :        978. kBytes
   grid      :       1368. kBytes
   one-center:          6. kBytes
   wavefun   :      10772. kBytes

     INWAV:  cpu time    0.00: real time    0.00
 Broyden mixing: mesh for mixing (old mesh)
   NGX = 21   NGY = 23   NGZ = 35
  (NGX  = 72   NGY  = 72   NGZ  =108)
  gives a total of  16905 points

 initial charge density was supplied:
 charge density of overlapping atoms calculated
 number of electron      32.0000000 magnetization 
 keeping initial charge density in first step


--------------------------------------------------------------------------------------------------------


 Maximum index for augmentation-charges          428 (set IRDMAX)


--------------------------------------------------------------------------------------------------------


 First call to EWALD:  gamma=   0.249
 Maximum number of real-space cells 3x 3x 2
 Maximum number of reciprocal cells 2x 3x 4

 FEWALD executed in parallel
    FEWALD:  cpu time    0.00: real time    0.00


----------------------------------------- Iteration    1(   1)  ---------------------------------------


    POTLOK:  cpu time    0.03: real time    0.03
    SETDIJ:  cpu time    0.00: real time    0.00
     EDDAV:  cpu time    0.64: real time    0.65
       DOS:  cpu time    0.00: real time    0.00
    --------------------------------------------
      LOOP:  cpu time    0.68: real time    0.69

 eigenvalue-minimisations  :  4056
 total energy-change (2. order) : 0.2883208E+02  (-0.8541925E+03)
 number of electron      32.0000000 magnetization 
 augmentation part       32.0000000 magnetization 

 Free energy of the ion-electron system (eV)
  ---------------------------------------------------
  alpha Z        PSCENC =       -12.32876644
  Ewald energy   TEWEN  =      -471.94166522
  -Hartree energ DENC   =        -0.45347116
  -exchange      EXHF   =         0.00000000
  -V(xc)+E(xc)   XCENC  =      -130.39082947
  PAW double counting   =       186.18586259       -8.88314254
  entropy T*S    EENTRO =        -0.00821088
  eigenvalues    EBANDS =        97.33688447
  atomic energy  EATOM  =       369.31542285
  ---------------------------------------------------
  free energy    TOTEN  =        28.83208419 eV

  energy without entropy =       28.84029507  energy(sigma->0) =       28.83618963


--------------------------------------------------------------------------------------------------------




----------------------------------------- Iteration    1(   2)  ---------------------------------------


     EDDAV:  cpu time    0.73: real time    0.73
       DOS:  cpu time    0.00: real time    0.00
    --------------------------------------------
      LOOP:  cpu time    0.74: real time    0.75

 eigenvalue-minimisations  :  4962
 total energy-change (2. order) :-0.5071104E+02  (-0.4655181E+02)
 number of electron      32.0000000 magnetization 
 augmentation part       32.0000000 magnetization 

 Free energy of the ion-electron system (eV)
  ---------------------------------------------------
  alpha Z        PSCENC =       -12.32876644
  Ewald energy   TEWEN  =      -471.94166522
  -Hartree energ DENC   =        -0.45347116
  -exchange      EXHF   =         0.00000000
  -V(xc)+E(xc)   XCENC  =      -130.39082947
  PAW double counting   =       186.18586259       -8.88314254
  entropy T*S    EENTRO =        -0.01440304
  eigenvalues    EBANDS =        46.63203436
  atomic energy  EATOM  =       369.31542285
  ---------------------------------------------------
  free energy    TOTEN  =       -21.87895808 eV

  energy without entropy =      -21.86455503  energy(sigma->0) =      -21.87175656


--------------------------------------------------------------------------------------------------------




----------------------------------------- Iteration    1(   3)  ---------------------------------------


     EDDAV:  cpu time    0.76: real time    0.76
       DOS:  cpu time    0.00: real time    0.00
    --------------------------------------------
      LOOP:  cpu time    0.76: real time    0.78

 eigenvalue-minimisations  :  5228
 total energy-change (2. order) :-0.2381110E+01  (-0.2278272E+01)
 number of electron      32.0000000 magnetization 
 augmentation part       32.0000000 magnetization 

 Free energy of the ion-electron system (eV)
  ---------------------------------------------------
  alpha Z        PSCENC =       -12.32876644
  Ewald energy   TEWEN  =      -471.94166522
  -Hartree energ DENC   =        -0.45347116
  -exchange      EXHF   =         0.00000000
  -V(xc)+E(xc)   XCENC  =      -130.39082947
  PAW double counting   =       186.18586259       -8.88314254
  entropy T*S    EENTRO =        -0.01601339
  eigenvalues    EBANDS =        44.25253436
  atomic energy  EATOM  =       369.31542285
  ---------------------------------------------------
  free energy    TOTEN  =       -24.26006843 eV

  energy without entropy =      -24.24405504  energy(sigma->0) =      -24.25206173


--------------------------------------------------------------------------------------------------------




----------------------------------------- Iteration    1(   4)  ---------------------------------------


     EDDAV:  cpu time    0.79: real time    0.79
       DOS:  cpu time    0.00: real time    0.00
    --------------------------------------------
      LOOP:  cpu time    0.79: real time    0.80

 eigenvalue-minimisations  :  5440
 total energy-change (2. order) :-0.6031026E-01  (-0.6010543E-01)
 number of electron      32.0000000 magnetization 
 augmentation part       32.0000000 magnetization 

 Free energy of the ion-electron system (eV)
  ---------------------------------------------------
  alpha Z        PSCENC =       -12.32876644
  Ewald energy   TEWEN  =      -471.94166522
  -Hartree energ DENC   =        -0.45347116
  -exchange      EXHF   =         0.00000000
  -V(xc)+E(xc)   XCENC  =      -130.39082947
  PAW double counting   =       186.18586259       -8.88314254
  entropy T*S    EENTRO =        -0.01604563
  eigenvalues    EBANDS =        44.19225634
  atomic energy  EATOM  =       369.31542285
  ---------------------------------------------------
  free energy    TOTEN  =       -24.32037869 eV

  energy without entropy =      -24.30433306  energy(sigma->0) =      -24.31235587


--------------------------------------------------------------------------------------------------------




----------------------------------------- Iteration    1(   5)  ---------------------------------------


     EDDAV:  cpu time    0.80: real time    0.80
       DOS:  cpu time    0.00: real time    0.00
    CHARGE:  cpu time    0.07: real time    0.07
    MIXING:  cpu time    0.00: real time    0.00
    --------------------------------------------
      LOOP:  cpu time    0.87: real time    0.89

 eigenvalue-minimisations  :  5454
 total energy-change (2. order) :-0.1747446E-02  (-0.1747228E-02)
 number of electron      32.0000000 magnetization 
 augmentation part        0.1058391 magnetization 

 Broyden mixing:
  rms(total) = 0.27430E+00    rms(broyden)= 0.27430E+00
  rms(prec ) = 0.36193E+00
  weight for this iteration     100.00

 Free energy of the ion-electron system (eV)
  ---------------------------------------------------
  alpha Z        PSCENC =       -12.32876644
  Ewald energy   TEWEN  =      -471.94166522
  -Hartree energ DENC   =        -0.45347116
  -exchange      EXHF   =         0.00000000
  -V(xc)+E(xc)   XCENC  =      -130.39082947
  PAW double counting   =       186.18586259       -8.88314254
  entropy T*S    EENTRO =        -0.01604421
  eigenvalues    EBANDS =        44.19050747
  atomic energy  EATOM  =       369.31542285
  ---------------------------------------------------
  free energy    TOTEN  =       -24.32212613 eV

  energy without entropy =      -24.30608192  energy(sigma->0) =      -24.31410403


--------------------------------------------------------------------------------------------------------




----------------------------------------- Iteration    1(   6)  ---------------------------------------


    POTLOK:  cpu time    0.02: real time    0.02
    SETDIJ:  cpu time    0.00: real time    0.00
    EDDIAG:  cpu time    0.15: real time    0.15
  RMM-DIIS:  cpu time    0.46: real time    0.46
    ORTHCH:  cpu time    0.01: real time    0.01
       DOS:  cpu time    0.00: real time    0.00
    CHARGE:  cpu time    0.06: real time    0.06
    MIXING:  cpu time    0.00: real time    0.00
    --------------------------------------------
      LOOP:  cpu time    0.71: real time    0.72

 eigenvalue-minimisations  :  4056
 total energy-change (2. order) : 0.5948630E-03  (-0.8039204E-03)
 number of electron      32.0000000 magnetization 
 augmentation part        0.1051803 magnetization 

 Broyden mixing:
  rms(total) = 0.17568E+00    rms(broyden)= 0.17568E+00
  rms(prec ) = 0.23393E+00
  weight for this iteration     100.00

 eigenvalues of (default mixing * dielectric matrix)
  average eigenvalue GAMMA=   2.7528
  2.7528

 Free energy of the ion-electron system (eV)
  ---------------------------------------------------
  alpha Z        PSCENC =       -12.32876644
  Ewald energy   TEWEN  =      -471.94166522
  -Hartree energ DENC   =        -0.46842772
  -exchange      EXHF   =         0.00000000
  -V(xc)+E(xc)   XCENC  =      -129.96874041
  PAW double counting   =       185.88089577       -8.57915334
  entropy T*S    EENTRO =        -0.01609978
  eigenvalues    EBANDS =        43.78500302
  atomic energy  EATOM  =       369.31542285
  ---------------------------------------------------
  free energy    TOTEN  =       -24.32153127 eV

  energy without entropy =      -24.30543150  energy(sigma->0) =      -24.31348138


--------------------------------------------------------------------------------------------------------




----------------------------------------- Iteration    1(   7)  ---------------------------------------


    POTLOK:  cpu time    0.02: real time    0.02
    SETDIJ:  cpu time    0.00: real time    0.00
    EDDIAG:  cpu time    0.15: real time    0.15
  RMM-DIIS:  cpu time    0.46: real time    0.46
    ORTHCH:  cpu time    0.01: real time    0.01
       DOS:  cpu time    0.00: real time    0.00
    CHARGE:  cpu time    0.06: real time    0.07
    MIXING:  cpu time    0.00: real time    0.00
    --------------------------------------------
      LOOP:  cpu time    0.71: real time    0.72

 eigenvalue-minimisations  :  4056
 total energy-change (2. order) :-0.5803146E-02  (-0.2859172E-02)
 number of electron      32.0000000 magnetization 
 augmentation part        0.1045197 magnetization 

 Broyden mixing:
  rms(total) = 0.11549E-01    rms(broyden)= 0.11549E-01
  rms(prec ) = 0.13003E-01
  weight for this iteration     100.00

 eigenvalues of (default mixing * dielectric matrix)
  average eigenvalue GAMMA=   2.4260
  2.0233  2.8287

 Free energy of the ion-electron system (eV)
  ---------------------------------------------------
  alpha Z        PSCENC =       -12.32876644
  Ewald energy   TEWEN  =      -471.94166522
  -Hartree energ DENC   =        -0.96148407
  -exchange      EXHF   =         0.00000000
  -V(xc)+E(xc)   XCENC  =      -128.96597923
  PAW double counting   =       185.36664115       -8.07324312
  entropy T*S    EENTRO =        -0.01618885
  eigenvalues    EBANDS =        43.27792851
  atomic energy  EATOM  =       369.31542285
  ---------------------------------------------------
  free energy    TOTEN  =       -24.32733442 eV

  energy without entropy =      -24.31114557  energy(sigma->0) =      -24.31923999


--------------------------------------------------------------------------------------------------------




----------------------------------------- Iteration    1(   8)  ---------------------------------------


    POTLOK:  cpu time    0.02: real time    0.02
    SETDIJ:  cpu time    0.00: real time    0.00
    EDDIAG:  cpu time    0.15: real time    0.15
  RMM-DIIS:  cpu time    0.46: real time    0.46
    ORTHCH:  cpu time    0.01: real time    0.01
       DOS:  cpu time    0.00: real time    0.00
    CHARGE:  cpu time    0.06: real time    0.06
    MIXING:  cpu time    0.00: real time    0.00
    --------------------------------------------
      LOOP:  cpu time    0.71: real time    0.72

 eigenvalue-minimisations  :  4058
 total energy-change (2. order) : 0.1582012E-03  (-0.2261132E-04)
 number of electron      32.0000000 magnetization 
 augmentation part        0.1044745 magnetization 

 Broyden mixing:
  rms(total) = 0.39895E-02    rms(broyden)= 0.39895E-02
  rms(prec ) = 0.42494E-02
  weight for this iteration     100.00

 eigenvalues of (default mixing * dielectric matrix)
  average eigenvalue GAMMA=   2.1400
  1.0050  2.8516  2.5634

 Free energy of the ion-electron system (eV)
  ---------------------------------------------------
  alpha Z        PSCENC =       -12.32876644
  Ewald energy   TEWEN  =      -471.94166522
  -Hartree energ DENC   =        -0.98823467
  -exchange      EXHF   =         0.00000000
  -V(xc)+E(xc)   XCENC  =      -128.92924368
  PAW double counting   =       185.39439875       -8.09992037
  entropy T*S    EENTRO =        -0.01618568
  eigenvalues    EBANDS =        43.26701824
  atomic energy  EATOM  =       369.31542285
  ---------------------------------------------------
  free energy    TOTEN  =       -24.32717622 eV

  energy without entropy =      -24.31099053  energy(sigma->0) =      -24.31908338


--------------------------------------------------------------------------------------------------------




----------------------------------------- Iteration    1(   9)  ---------------------------------------


    POTLOK:  cpu time    0.02: real time    0.02
    SETDIJ:  cpu time    0.00: real time    0.00
    EDDIAG:  cpu time    0.15: real time    0.15
  RMM-DIIS:  cpu time    0.46: real time    0.46
    ORTHCH:  cpu time    0.01: real time    0.01
       DOS:  cpu time    0.00: real time    0.00
    CHARGE:  cpu time    0.06: real time    0.06
    MIXING:  cpu time    0.00: real time    0.00
    --------------------------------------------
      LOOP:  cpu time    0.71: real time    0.72

 eigenvalue-minimisations  :  4070
 total energy-change (2. order) :-0.4779938E-05  (-0.4396844E-05)
 number of electron      32.0000000 magnetization 
 augmentation part        0.1046017 magnetization 

 Broyden mixing:
  rms(total) = 0.22269E-03    rms(broyden)= 0.22269E-03
  rms(prec ) = 0.27160E-03
  weight for this iteration     100.00

 eigenvalues of (default mixing * dielectric matrix)
  average eigenvalue GAMMA=   2.1938
  1.0009  2.9361  2.4190  2.4190

 Free energy of the ion-electron system (eV)
  ---------------------------------------------------
  alpha Z        PSCENC =       -12.32876644
  Ewald energy   TEWEN  =      -471.94166522
  -Hartree energ DENC   =        -0.99470120
  -exchange      EXHF   =         0.00000000
  -V(xc)+E(xc)   XCENC  =      -128.92079453
  PAW double counting   =       185.41589924       -8.12153895
  entropy T*S    EENTRO =        -0.01618385
  eigenvalues    EBANDS =        43.26514710
  atomic energy  EATOM  =       369.31542285
  ---------------------------------------------------
  free energy    TOTEN  =       -24.32718100 eV

  energy without entropy =      -24.31099714  energy(sigma->0) =      -24.31908907


--------------------------------------------------------------------------------------------------------




----------------------------------------- Iteration    1(  10)  ---------------------------------------


    POTLOK:  cpu time    0.02: real time    0.02
    SETDIJ:  cpu time    0.00: real time    0.00
    EDDIAG:  cpu time    0.15: real time    0.15
  RMM-DIIS:  cpu time    0.45: real time    0.45
    ORTHCH:  cpu time    0.01: real time    0.01
       DOS:  cpu time    0.01: real time    0.01
    CHARGE:  cpu time    0.06: real time    0.07
    MIXING:  cpu time    0.00: real time    0.00
    --------------------------------------------
      LOOP:  cpu time    0.70: real time    0.71

 eigenvalue-minimisations  :  3979
 total energy-change (2. order) :-0.3382147E-05  (-0.6937373E-06)
 number of electron      32.0000000 magnetization 
 augmentation part        0.1046936 magnetization 

 Broyden mixing:
  rms(total) = 0.85750E-04    rms(broyden)= 0.85749E-04
  rms(prec ) = 0.11228E-03
  weight for this iteration     100.00

 eigenvalues of (default mixing * dielectric matrix)
  average eigenvalue GAMMA=   2.0309
  2.7964  2.7964  2.4493  1.0066  1.1058

 Free energy of the ion-electron system (eV)
  ---------------------------------------------------
  alpha Z        PSCENC =       -12.32876644
  Ewald energy   TEWEN  =      -471.94166522
  -Hartree energ DENC   =        -0.99524328
  -exchange      EXHF   =         0.00000000
  -V(xc)+E(xc)   XCENC  =      -128.91983064
  PAW double counting   =       185.42139830       -8.12789658
  entropy T*S    EENTRO =        -0.01618381
  eigenvalues    EBANDS =        43.26558043
  atomic energy  EATOM  =       369.31542285
  ---------------------------------------------------
  free energy    TOTEN  =       -24.32718438 eV

  energy without entropy =      -24.31100057  energy(sigma->0) =      -24.31909247


--------------------------------------------------------------------------------------------------------




----------------------------------------- Iteration    1(  11)  ---------------------------------------


    POTLOK:  cpu time    0.02: real time    0.02
    SETDIJ:  cpu time    0.00: real time    0.00
    EDDIAG:  cpu time    0.15: real time    0.15
  RMM-DIIS:  cpu time    0.30: real time    0.31
    ORTHCH:  cpu time    0.01: real time    0.01
       DOS:  cpu time    0.00: real time    0.00
    CHARGE:  cpu time    0.06: real time    0.06
    MIXING:  cpu time    0.00: real time    0.00
    --------------------------------------------
      LOOP:  cpu time    0.55: real time    0.57

 eigenvalue-minimisations  :  2479
 total energy-change (2. order) :-0.1040370E-05  (-0.5037167E-07)
 number of electron      32.0000000 magnetization 
 augmentation part        0.1047077 magnetization 

 Broyden mixing:
  rms(total) = 0.25882E-04    rms(broyden)= 0.25881E-04
  rms(prec ) = 0.33550E-04
  weight for this iteration     100.00

 eigenvalues of (default mixing * dielectric matrix)
  average eigenvalue GAMMA=   2.0545
  0.9928  0.9928  2.9500  2.7853  2.5475  2.0588

 Free energy of the ion-electron system (eV)
  ---------------------------------------------------
  alpha Z        PSCENC =       -12.32876644
  Ewald energy   TEWEN  =      -471.94166522
  -Hartree energ DENC   =        -0.99487122
  -exchange      EXHF   =         0.00000000
  -V(xc)+E(xc)   XCENC  =      -128.92031446
  PAW double counting   =       185.42322916       -8.12991969
  entropy T*S    EENTRO =        -0.01618383
  eigenvalues    EBANDS =        43.26588343
  atomic energy  EATOM  =       369.31542285
  ---------------------------------------------------
  free energy    TOTEN  =       -24.32718542 eV

  energy without entropy =      -24.31100159  energy(sigma->0) =      -24.31909350


--------------------------------------------------------------------------------------------------------




----------------------------------------- Iteration    1(  12)  ---------------------------------------


    POTLOK:  cpu time    0.02: real time    0.02
    SETDIJ:  cpu time    0.00: real time    0.00
    EDDIAG:  cpu time    0.15: real time    0.15
  RMM-DIIS:  cpu time    0.29: real time    0.29
    ORTHCH:  cpu time    0.01: real time    0.01
       DOS:  cpu time    0.00: real time    0.00
    --------------------------------------------
      LOOP:  cpu time    0.47: real time    0.48

 eigenvalue-minimisations  :  1992
 total energy-change (2. order) :-0.5653134E-06  (-0.2132069E-07)
 number of electron      32.0000000 magnetization 
 augmentation part        0.1047077 magnetization 

 Free energy of the ion-electron system (eV)
  ---------------------------------------------------
  alpha Z        PSCENC =       -12.32876644
  Ewald energy   TEWEN  =      -471.94166522
  -Hartree energ DENC   =        -0.99489227
  -exchange      EXHF   =         0.00000000
  -V(xc)+E(xc)   XCENC  =      -128.92026633
  PAW double counting   =       185.42400993       -8.13077613
  entropy T*S    EENTRO =        -0.01618386
  eigenvalues    EBANDS =        43.26593148
  atomic energy  EATOM  =       369.31542285
  ---------------------------------------------------
  free energy    TOTEN  =       -24.32718598 eV

  energy without entropy =      -24.31100212  energy(sigma->0) =      -24.31909405


--------------------------------------------------------------------------------------------------------




 average (electrostatic) potential at core
  the test charge radii are     1.0714
  (the norm of the test charge is              1.0000)
       1 -53.9412       2 -53.9412       3 -53.9412       4 -53.9412       5 -53.9412
       6 -53.9412       7 -53.9412       8 -53.9412       9 -53.9412      10 -53.9412
      11 -53.9412      12 -53.9412      13 -53.9412      14 -53.9412      15 -53.9412
      16 -53.9412



 E-fermi :   4.1543     XC(G=0):  -8.2750     alpha+bet : -9.0591


 k-point     1 :       0.0000    0.0000    0.0000
  band No.  band energies     occupation 
      1      -2.8991      2.00000
      2      -1.4862      2.00000
      3      -1.4858      2.00000
      4       1.8625      2.00000
      5       1.8843      2.00000
      6       1.9977      2.00000
      7       1.9977      2.00000
      8       2.0293      2.00000
      9       2.0293      2.00000
     10       2.4166      2.00000
     11       2.8496      2.00000
     12       2.8869      2.00000
     13       3.0058      2.00000
     14       3.0058      2.00000
     15       3.0139      2.00000
     16       3.0888      2.00000
     17       3.0888      2.00000
     18       3.4624      2.00000
     19       3.6942      2.00000
     20       3.6942      2.00000
     21       3.7005      2.00000
     22       3.8108      2.00000
     23       3.8109      2.00000
     24       6.6517      0.00000
     25       6.8611      0.00000
     26       6.8681      0.00000

 k-point     2 :       0.1250    0.0000    0.0000
  band No.  band energies     occupation 
      1      -2.8202      2.00000
      2      -1.4147      2.00000
      3      -1.4018      2.00000
      4       0.8896      2.00000
      5       1.3678      2.00000
      6       1.4740      2.00000
      7       2.1833      2.00000
      8       2.2677      2.00000
      9       2.4881      2.00000
     10       2.5214      2.00000
     11       2.5778      2.00000
     12       2.6932      2.00000
     13       2.7124      2.00000
     14       2.7506      2.00000
     15       2.8151      2.00000
     16       2.9638      2.00000
     17       3.2506      2.00000
     18       3.8785      1.99997
     19       4.1075      1.73327
     20       4.1302      1.44795
     21       4.2277      0.10095
     22       4.6518      0.00000
     23       4.7675      0.00000
     24       5.9358      0.00000
     25       6.3383      0.00000
     26       6.4810      0.00000

 k-point     3 :       0.2500    0.0000    0.0000
  band No.  band energies     occupation 
      1      -2.5838      2.00000
      2      -1.1883      2.00000
      3      -1.1625      2.00000
      4      -0.0995      2.00000
      5       1.0094      2.00000
      6       1.0807      2.00000
      7       1.2302      2.00000
      8       1.3048      2.00000
      9       2.2601      2.00000
     10       2.3528      2.00000
     11       2.4280      2.00000
     12       2.4725      2.00000
     13       2.7029      2.00000
     14       3.1929      2.00000
     15       3.3033      2.00000
     16       3.5024      2.00000
     17       4.4653      0.00001
     18       4.6265      0.00000
     19       4.8576      0.00000
     20       4.9144      0.00000
     21       4.9943      0.00000
     22       5.0058      0.00000
     23       5.9790      0.00000
     24       6.0098      0.00000
     25       6.0146      0.00000
     26       6.1155      0.00000

 k-point     4 :       0.3750    0.0000    0.0000
  band No.  band energies     occupation 
      1      -2.1912      2.00000
      2      -0.9458      2.00000
      3      -0.8079      2.00000
      4      -0.7694      2.00000
      5       0.4055      2.00000
      6       0.4686      2.00000
      7       0.8006      2.00000
      8       0.8364      2.00000
      9       2.0681      2.00000
     10       2.1150      2.00000
     11       2.2261      2.00000
     12       2.2486      2.00000
     13       3.0612      2.00000
     14       3.5682      2.00000
     15       4.2011      0.26697
     16       4.2093      0.19964
     17       4.4158      0.00006
     18       4.6313      0.00000
     19       5.5188      0.00000
     20       5.7499      0.00000
     21       5.8182      0.00000
     22       5.8332      0.00000
     23       5.8683      0.00000
     24       5.8927      0.00000
     25       6.1354      0.00000
     26       6.2459      0.00000

 k-point     5 :       0.5000    0.0000    0.0000
  band No.  band energies     occupation 
      1      -1.6443      2.00000
      2      -1.6443      2.00000
      3      -0.2756      2.00000
      4      -0.2756      2.00000
      5      -0.2246      2.00000
      6      -0.2246      2.00000
      7       0.7428      2.00000
      8       0.7428      2.00000
      9       2.0188      2.00000
     10       2.0188      2.00000
     11       2.1652      2.00000
     12       2.1652      2.00000
     13       3.5635      2.00000
     14       3.5635      2.00000
     15       4.0732      1.92497
     16       4.0732      1.92497
     17       5.1081      0.00000
     18       5.1081      0.00000
     19       5.4714      0.00000
     20       5.4714      0.00000
     21       5.7963      0.00000
     22       5.7963      0.00000
     23       6.3754      0.00000
     24       6.3754      0.00000
     25       6.5047      0.00000
     26       6.5049      0.00000

 k-point     6 :       0.0000    0.1250    0.0000
  band No.  band energies     occupation 
      1      -2.8226      2.00000
      2      -1.4235      2.00000
      3      -1.3976      2.00000
      4       0.7800      2.00000
      5       1.5070      2.00000
      6       1.5070      2.00000
      7       2.0361      2.00000
      8       2.2049      2.00000
      9       2.4850      2.00000
     10       2.6570      2.00000
     11       2.6570      2.00000
     12       2.7564      2.00000
     13       2.7564      2.00000
     14       2.8270      2.00000
     15       2.8270      2.00000
     16       2.9626      2.00000
     17       3.0812      2.00000
     18       4.0830      1.89068
     19       4.0830      1.89065
     20       4.2120      0.18065
     21       4.2120      0.18060
     22       4.4084      0.00008
     23       4.6414      0.00000
     24       5.7985      0.00000
     25       6.5191      0.00000
     26       6.5429      0.00000

 k-point     7 :       0.1250    0.1250    0.0000
  band No.  band energies     occupation 
      1      -2.6673      2.00000
      2      -1.2770      2.00000
      3      -1.2382      2.00000
      4       0.3400      2.00000
      5       0.4481      2.00000
      6       1.6171      2.00000
      7       1.7710      2.00000
      8       1.7768      2.00000
      9       1.8323      2.00000
     10       2.1931      2.00000
     11       2.2717      2.00000
     12       2.6251      2.00000
     13       3.1143      2.00000
     14       3.2099      2.00000
     15       3.2961      2.00000
     16       3.7631      2.00000
     17       3.9184      1.99984
     18       3.9214      1.99982
     19       4.0307      1.98587
     20       5.1031      0.00000
     21       5.3349      0.00000
     22       5.3438      0.00000
     23       5.3910      0.00000
     24       5.4719      0.00000
     25       5.5227      0.00000
     26       6.2346      0.00000

 k-point     8 :       0.2500    0.1250    0.0000
  band No.  band energies     occupation 
      1      -2.3551      2.00000
      2      -0.9758      2.00000
      3      -0.9243      2.00000
      4      -0.4718      2.00000
      5       0.0507      2.00000
      6       0.8777      2.00000
      7       0.9278      2.00000
      8       1.3411      2.00000
      9       1.4897      2.00000
     10       1.8817      2.00000
     11       2.9087      2.00000
     12       3.0934      2.00000
     13       3.1619      2.00000
     14       3.2268      2.00000
     15       3.4155      2.00000
     16       4.5124      0.00000
     17       4.5971      0.00000
     18       4.6526      0.00000
     19       4.6605      0.00000
     20       4.8102      0.00000
     21       5.1292      0.00000
     22       5.9358      0.00000
     23       6.0199      0.00000
     24       6.0600      0.00000
     25       6.1826      0.00000
     26       6.2255      0.00000

 k-point     9 :       0.3750    0.1250    0.0000
  band No.  band energies     occupation 
      1      -1.8876      2.00000
      2      -1.2464      2.00000
      3      -0.5216      2.00000
      4      -0.4576      2.00000
      5      -0.0864      2.00000
      6       0.1224      2.00000
      7       0.1605      2.00000
      8       1.2131      2.00000
      9       1.3499      2.00000
     10       1.7132      2.00000
     11       2.9491      2.00000
     12       3.1011      2.00000
     13       3.3362      2.00000
     14       3.8564      1.99999
     15       3.9344      1.99970
     16       4.1773      0.56956
     17       4.4143      0.00006
     18       4.9625      0.00000
     19       5.0685      0.00000
     20       5.1516      0.00000
     21       5.4958      0.00000
     22       5.5167      0.00000
     23       6.1480      0.00000
     24       6.6975      0.00000
     25       6.7049      0.00000
     26       6.8760      0.00000

 k-point    10 :       0.5000    0.1250    0.0000
  band No.  band energies     occupation 
      1      -1.8713      2.00000
      2      -1.2671      2.00000
      3      -0.4865      2.00000
      4      -0.4609      2.00000
      5      -0.0705      2.00000
      6       0.0831      2.00000
      7       0.1592      2.00000
      8       1.2348      2.00000
      9       1.3591      2.00000
     10       1.6934      2.00000
     11       2.9238      2.00000
     12       3.0879      2.00000
     13       3.3572      2.00000
     14       3.8647      1.99998
     15       3.9075      1.99990
     16       3.9648      1.99898
     17       4.4060      0.00008
     18       4.9910      0.00000
     19       5.2149      0.00000
     20       5.2256      0.00000
     21       5.2870      0.00000
     22       5.4297      0.00000
     23       6.2968      0.00000
     24       6.6791      0.00000
     25       7.0115      0.00000
     26       7.1011      0.00000

 k-point    11 :      -0.3750    0.1250    0.0000
  band No.  band energies     occupation 
      1      -2.3434      2.00000
      2      -0.9450      2.00000
      3      -0.9321      2.00000
      4      -0.4969      2.00000
      5       0.0983      2.00000
      6       0.8344      2.00000
      7       0.9221      2.00000
      8       1.4060      2.00000
      9       1.5175      2.00000
     10       1.8226      2.00000
     11       2.9239      2.00000
     12       2.9688      2.00000
     13       3.0173      2.00000
     14       3.1876      2.00000
     15       3.4217      2.00000
     16       4.3177      0.00290
     17       4.5423      0.00000
     18       4.6151      0.00000
     19       4.6985      0.00000
     20       4.8263      0.00000
     21       5.1888      0.00000
     22       6.0785      0.00000
     23       6.1153      0.00000
     24       6.2632      0.00000
     25       6.3503      0.00000
     26       6.4060      0.00000

 k-point    12 :      -0.2500    0.1250    0.0000
  band No.  band energies     occupation 
      1      -2.6602      2.00000
      2      -1.2509      2.00000
      3      -1.2504      2.00000
      4       0.4190      2.00000
      5       0.4190      2.00000
      6       1.7244      2.00000
      7       1.7244      2.00000
      8       1.8225      2.00000
      9       1.8225      2.00000
     10       2.0916      2.00000
     11       2.1076      2.00000
     12       2.6344      2.00000
     13       3.0650      2.00000
     14       3.1181      2.00000
     15       3.2284      2.00000
     16       3.6908      2.00000
     17       3.9275      1.99977
     18       3.9578      1.99923
     19       3.9578      1.99923
     20       5.3909      0.00000
     21       5.3909      0.00000
     22       5.4883      0.00000
     23       5.4883      0.00000
     24       5.4927      0.00000
     25       5.4927      0.00000
     26       6.3154      0.00000

 k-point    13 :       0.0000    0.2500    0.0000
  band No.  band energies     occupation 
      1      -2.5932      2.00000
      2      -1.2104      2.00000
      3      -1.1588      2.00000
      4      -0.1813      2.00000
      5       1.1132      2.00000
      6       1.1428      2.00000
      7       1.1428      2.00000
      8       1.2625      2.00000
      9       2.4469      2.00000
     10       2.4469      2.00000
     11       2.4953      2.00000
     12       2.4953      2.00000
     13       2.6907      2.00000
     14       3.1878      2.00000
     15       3.4284      2.00000
     16       3.4284      2.00000
     17       4.2969      0.00664
     18       4.8084      0.00000
     19       4.8084      0.00000
     20       4.9109      0.00000
     21       4.9573      0.00000
     22       4.9573      0.00000
     23       5.7269      0.00000
     24       5.8588      0.00000
     25       5.9812      0.00000
     26       6.1830      0.00000

 k-point    14 :       0.1250    0.2500    0.0000
  band No.  band energies     occupation 
      1      -2.3621      2.00000
      2      -0.9891      2.00000
      3      -0.9247      2.00000
      4      -0.5517      2.00000
      5       0.1524      2.00000
      6       0.7557      2.00000
      7       0.8936      2.00000
      8       1.4958      2.00000
      9       1.5330      2.00000
     10       1.9799      2.00000
     11       2.8997      2.00000
     12       3.0544      2.00000
     13       3.2219      2.00000
     14       3.2611      2.00000
     15       3.4116      2.00000
     16       4.4611      0.00001
     17       4.5348      0.00000
     18       4.6169      0.00000
     19       4.6435      0.00000
     20       4.7456      0.00000
     21       5.2466      0.00000
     22       5.8662      0.00000
     23       6.1280      0.00000
     24       6.1512      0.00000
     25       6.2494      0.00000
     26       6.3113      0.00000

 k-point    15 :       0.2500    0.2500    0.0000
  band No.  band energies     occupation 
      1      -1.9750      2.00000
      2      -0.7691      2.00000
      3      -0.6959      2.00000
      4      -0.6141      2.00000
      5      -0.5373      2.00000
      6       0.5481      2.00000
      7       0.6701      2.00000
      8       0.6740      2.00000
      9       0.6953      2.00000
     10       2.8129      2.00000
     11       2.9569      2.00000
     12       3.2525      2.00000
     13       3.7792      2.00000
     14       3.8145      2.00000
     15       3.9075      1.99990
     16       4.3526      0.00072
     17       4.4492      0.00002
     18       4.5441      0.00000
     19       4.6388      0.00000
     20       4.7972      0.00000
     21       4.8325      0.00000
     22       5.0380      0.00000
     23       6.4823      0.00000
     24       6.5714      0.00000
     25       6.7036      0.00000
     26       6.8065      0.00000

 k-point    16 :       0.3750    0.2500    0.0000
  band No.  band energies     occupation 
      1      -1.4340      2.00000
      2      -1.3970      2.00000
      3      -0.8326      2.00000
      4      -0.0875      2.00000
      5      -0.0131      2.00000
      6      -0.0004      2.00000
      7       0.0015      2.00000
      8       0.4920      2.00000
      9       0.6054      2.00000
     10       2.7222      2.00000
     11       3.7491      2.00000
     12       3.7968      2.00000
     13       3.8518      1.99999
     14       3.8549      1.99999
     15       4.0096      1.99389
     16       4.0506      1.96887
     17       4.2740      0.01648
     18       4.2916      0.00821
     19       4.2995      0.00598
     20       4.7850      0.00000
     21       4.9643      0.00000
     22       5.0710      0.00000
     23       5.9345      0.00000
     24       6.0378      0.00000
     25       7.3279      0.00000
     26       7.6398      0.00000

 k-point    17 :       0.5000    0.2500    0.0000
  band No.  band energies     occupation 
      1      -1.9471      2.00000
      2      -0.7416      2.00000
      3      -0.7416      2.00000
      4      -0.5485      2.00000
      5      -0.5481      2.00000
      6       0.5876      2.00000
      7       0.5876      2.00000
      8       0.6883      2.00000
      9       0.6883      2.00000
     10       2.7702      2.00000
     11       2.7768      2.00000
     12       3.2885      2.00000
     13       3.7034      2.00000
     14       3.7941      2.00000
     15       3.8619      1.99998
     16       4.3413      0.00113
     17       4.3883      0.00017
     18       4.3883      0.00017
     19       4.5642      0.00000
     20       4.8249      0.00000
     21       4.8249      0.00000
     22       5.2427      0.00000
     23       6.7714      0.00000
     24       6.7714      0.00000
     25       6.9039      0.00000
     26       6.9131      0.00000

 k-point    18 :       0.0000    0.3750    0.0000
  band No.  band energies     occupation 
      1      -2.2122      2.00000
      2      -1.0033      2.00000
      3      -0.8478      2.00000
      4      -0.7707      2.00000
      5       0.3177      2.00000
      6       0.4440      2.00000
      7       0.9233      2.00000
      8       0.9233      2.00000
      9       2.2531      2.00000
     10       2.2531      2.00000
     11       2.2775      2.00000
     12       2.2775      2.00000
     13       3.0341      2.00000
     14       3.5565      2.00000
     15       4.1345      1.37721
     16       4.3078      0.00430
     17       4.3078      0.00430
     18       4.5927      0.00000
     19       5.6755      0.00000
     20       5.6755      0.00000
     21       5.8412      0.00000
     22       5.8413      0.00000
     23       5.9763      0.00000
[...]
     24       6.0688      0.00000
     25       6.1438      0.00000
     26       6.1723      0.00000

 k-point    69 :      -0.2500    0.1250    0.5000
  band No.  band energies     occupation 
      1      -2.3058      2.00000
      2      -2.3058      2.00000
      3       0.4809      2.00000
      4       0.4809      2.00000
      5       0.7357      2.00000
      6       0.7357      2.00000
      7       0.7860      2.00000
      8       0.7860      2.00000
      9       2.3765      2.00000
     10       2.3765      2.00000
     11       2.4734      2.00000
     12       2.4734      2.00000
     13       3.3013      2.00000
     14       3.3013      2.00000
     15       3.4286      2.00000
     16       3.4286      2.00000
     17       4.4922      0.00000
     18       4.4923      0.00000
     19       4.5619      0.00000
     20       4.5619      0.00000
     21       5.0166      0.00000
     22       5.0166      0.00000
     23       5.3131      0.00000
     24       5.3131      0.00000
     25       5.8796      0.00000
     26       5.8796      0.00000

 k-point    70 :       0.0000    0.2500    0.5000
  band No.  band energies     occupation 
      1      -2.2521      2.00000
      2      -2.2260      2.00000
      3       0.1254      2.00000
      4       0.2015      2.00000
      5       0.5079      2.00000
      6       0.5835      2.00000
      7       1.4681      2.00000
      8       1.4681      2.00000
      9       1.4930      2.00000
     10       1.4930      2.00000
     11       2.7401      2.00000
     12       2.9501      2.00000
     13       3.5742      2.00000
     14       3.5742      2.00000
     15       3.6351      2.00000
     16       3.6351      2.00000
     17       4.3671      0.00041
     18       4.3671      0.00041
     19       4.4561      0.00001
     20       4.4561      0.00001
     21       4.8099      0.00000
     22       4.9485      0.00000
     23       5.8807      0.00000
     24       5.9967      0.00000
     25       6.3489      0.00000
     26       6.3489      0.00000

 k-point    71 :       0.1250    0.2500    0.5000
  band No.  band energies     occupation 
      1      -2.0251      2.00000
      2      -1.9925      2.00000
      3      -0.2404      2.00000
      4      -0.1703      2.00000
      5       0.4863      2.00000
      6       0.5052      2.00000
      7       0.7217      2.00000
      8       0.8158      2.00000
      9       2.3011      2.00000
     10       2.3196      2.00000
     11       2.4049      2.00000
     12       2.6029      2.00000
     13       3.1344      2.00000
     14       3.1867      2.00000
     15       3.3159      2.00000
     16       3.3892      2.00000
     17       5.0175      0.00000
     18       5.0791      0.00000
     19       5.2255      0.00000
     20       5.3101      0.00000
     21       5.5502      0.00000
     22       5.6828      0.00000
     23       5.8935      0.00000
     24       6.0698      0.00000
     25       6.0897      0.00000
     26       6.2124      0.00000

 k-point    72 :       0.2500    0.2500    0.5000
  band No.  band energies     occupation 
      1      -1.6426      2.00000
      2      -1.6037      2.00000
      3      -0.4539      2.00000
      4      -0.3899      2.00000
      5      -0.3554      2.00000
      6      -0.3426      2.00000
      7       1.0859      2.00000
      8       1.1981      2.00000
      9       2.2084      2.00000
     10       2.3510      2.00000
     11       2.3874      2.00000
     12       2.3904      2.00000
     13       3.0911      2.00000
     14       3.1707      2.00000
     15       3.2670      2.00000
     16       3.2776      2.00000
     17       5.1103      0.00000
     18       5.1941      0.00000
     19       5.8494      0.00000
     20       5.9854      0.00000
     21       6.3879      0.00000
     22       6.3947      0.00000
     23       6.3963      0.00000
     24       6.5035      0.00000
     25       6.5069      0.00000
     26       6.5526      0.00000

 k-point    73 :       0.3750    0.2500    0.5000
  band No.  band energies     occupation 
      1      -1.1067      2.00000
      2      -1.0616      2.00000
      3      -1.0506      2.00000
      4      -1.0441      2.00000
      5      -0.5139      2.00000
      6      -0.4563      2.00000
      7       1.5980      2.00000
      8       1.6890      2.00000
      9       1.7075      2.00000
     10       1.7277      2.00000
     11       2.1573      2.00000
     12       2.3217      2.00000
     13       3.0003      2.00000
     14       3.0895      2.00000
     15       4.0840      1.88774
     16       4.1787      0.55144
     17       4.3128      0.00356
     18       4.3270      0.00201
     19       5.8178      0.00000
     20       6.0787      0.00000
     21       6.7946      0.00000
     22       6.8603      0.00000
     23       6.8934      0.00000
     24       6.9118      0.00000
     25       6.9625      0.00000
     26       7.0714      0.00000

 k-point    74 :       0.5000    0.2500    0.5000
  band No.  band energies     occupation 
      1      -1.5954      2.00000
      2      -1.5954      2.00000
      3      -0.4201      2.00000
      4      -0.4201      2.00000
      5      -0.3690      2.00000
      6      -0.3690      2.00000
      7       1.1688      2.00000
      8       1.1688      2.00000
      9       2.2530      2.00000
     10       2.2530      2.00000
     11       2.3987      2.00000
     12       2.3987      2.00000
     13       3.0446      2.00000
     14       3.0446      2.00000
     15       3.1398      2.00000
     16       3.1398      2.00000
     17       5.2305      0.00000
     18       5.2305      0.00000
     19       5.8288      0.00000
     20       5.8288      0.00000
     21       6.4530      0.00000
     22       6.4530      0.00000
     23       6.4946      0.00000
     24       6.4946      0.00000
     25       6.6905      0.00000
     26       6.6920      0.00000

 k-point    75 :       0.0000    0.3750    0.5000
  band No.  band energies     occupation 
      1      -1.8790      2.00000
      2      -1.8399      2.00000
      3      -0.6871      2.00000
      4      -0.6230      2.00000
      5       0.8570      2.00000
      6       0.9697      2.00000
      7       1.2565      2.00000
      8       1.2565      2.00000
      9       1.2690      2.00000
     10       1.2690      2.00000
     11       1.9836      2.00000
     12       2.1665      2.00000
     13       3.8008      2.00000
     14       3.8008      2.00000
     15       3.8351      1.99999
     16       3.8351      1.99999
     17       4.8432      0.00000
     18       4.8432      0.00000
     19       4.9336      0.00000
     20       4.9336      0.00000
     21       6.1810      0.00000
     22       6.1838      0.00000
     23       6.2881      0.00000
     24       6.3517      0.00000
     25       6.7576      0.00000
     26       6.7576      0.00000

 k-point    76 :       0.1250    0.3750    0.5000
  band No.  band energies     occupation 
      1      -1.5772      2.00000
      2      -1.5318      2.00000
      3      -0.9814      2.00000
      4      -0.9234      2.00000
      5       0.3450      2.00000
      6       0.3514      2.00000
      7       1.1430      2.00000
      8       1.2737      2.00000
      9       1.7066      2.00000
     10       1.8727      2.00000
     11       2.1659      2.00000
     12       2.1721      2.00000
     13       3.0224      2.00000
     14       3.0401      2.00000
     15       4.1687      0.72295
     16       4.2260      0.10844
     17       4.9057      0.00000
     18       4.9377      0.00000
     19       5.6708      0.00000
     20       5.7526      0.00000
     21       6.1511      0.00000
     22       6.2443      0.00000
     23       6.4251      0.00000
     24       6.6105      0.00000
     25       6.7098      0.00000
     26       6.7599      0.00000

 k-point    77 :       0.2500    0.3750    0.5000
  band No.  band energies     occupation 
      1      -1.1214      2.00000
      2      -1.1214      2.00000
      3      -1.0698      2.00000
      4      -1.0698      2.00000
      5      -0.4235      2.00000
      6      -0.4235      2.00000
      7       1.5777      2.00000
      8       1.5777      2.00000
      9       1.7258      2.00000
     10       1.7258      2.00000
     11       2.2983      2.00000
     12       2.2983      2.00000
     13       3.2024      2.00000
     14       3.2024      2.00000
     15       4.0973      1.81591
     16       4.0973      1.81589
     17       4.2225      0.12377
     18       4.2225      0.12375
     19       6.0801      0.00000
     20       6.0801      0.00000
     21       6.7649      0.00000
     22       6.7649      0.00000
     23       6.9017      0.00000
     24       6.9017      0.00000
     25       6.9418      0.00000
     26       6.9418      0.00000

 k-point    78 :       0.0000    0.5000    0.5000
  band No.  band energies     occupation 
      1      -1.3565      2.00000
      2      -1.3565      2.00000
      3      -1.3047      2.00000
      4      -1.3047      2.00000
      5       1.1899      2.00000
      6       1.1899      2.00000
      7       1.1899      2.00000
      8       1.1899      2.00000
      9       1.3504      2.00000
     10       1.3504      2.00000
     11       1.4992      2.00000
     12       1.4992      2.00000
     13       3.7975      2.00000
     14       3.7975      2.00000
     15       3.7975      2.00000
     16       3.7975      2.00000
     17       5.7427      0.00000
     18       5.7427      0.00000
     19       5.7427      0.00000
     20       5.7427      0.00000
     21       5.9496      0.00000
     22       5.9496      0.00000
     23       5.9496      0.00000
     24       5.9496      0.00000
     25       6.5678      0.00000
     26       6.5678      0.00000


--------------------------------------------------------------------------------------------------------


 soft charge-density along one line, spin component           1
         0         1         2         3         4         5         6         7         8         9
 total charge-density along one line

 pseudopotential strength for first ion, spin component:           1
  3.574  -0.021   0.000  -0.000   0.000   0.000   0.000   0.000
 -0.021  -0.008   0.000   0.000   0.000  -0.000  -0.000  -0.000
  0.000   0.000   0.714   0.000   0.000  -0.027  -0.000   0.000
 -0.000   0.000   0.000   0.714  -0.000  -0.000  -0.027  -0.000
  0.000   0.000   0.000  -0.000   0.714   0.000  -0.000  -0.027
  0.000  -0.000  -0.027  -0.000   0.000  -0.037   0.000  -0.000
  0.000  -0.000  -0.000  -0.027  -0.000   0.000  -0.037   0.000
  0.000  -0.000   0.000  -0.000  -0.027  -0.000   0.000  -0.037
 total augmentation occupancy for first ion, spin component:           1
  1.130  -0.043  -0.001  -0.000   0.000   0.000  -0.000  -0.000
 -0.043   0.003   0.000  -0.000  -0.000  -0.000   0.000   0.000
 -0.001   0.000   0.761   0.007  -0.000   0.043   0.000  -0.000
 -0.000  -0.000   0.007   0.752  -0.000   0.000   0.043  -0.000
  0.000  -0.000  -0.000  -0.000   0.772  -0.000  -0.000   0.044
  0.000  -0.000   0.043   0.000  -0.000   0.003   0.000  -0.000
 -0.000   0.000   0.000   0.043  -0.000   0.000   0.003  -0.000
 -0.000   0.000  -0.000  -0.000   0.044  -0.000  -0.000   0.003


------------------------ aborting loop because EDIFF is reached ----------------------------------------


    CHARGE:  cpu time    0.06: real time    0.06
    FORLOC:  cpu time    0.00: real time    0.00
    FORNL :  cpu time    0.24: real time    0.24
    STRESS:  cpu time    0.39: real time    0.39
    FORCOR:  cpu time    0.02: real time    0.02
    FORHAR:  cpu time    0.01: real time    0.01
    MIXING:  cpu time    0.00: real time    0.00
    OFIELD:  cpu time    0.00: real time    0.00

  FORCE on cell =-STRESS in cart. coord.  units (eV):
  Direction    XX          YY          ZZ          XY          YZ          ZX
  --------------------------------------------------------------------------------------
  Alpha Z   -12.32877   -12.32877   -12.32877
  Ewald    -156.66733  -158.94832  -156.33193     0.00009     0.85350     0.00000
  Hartree     0.27567     0.31047     0.40732    -0.00000    -0.02898     0.00000
  E(xc)     -74.05441   -73.94220   -73.95028     0.00001    -0.05064    -0.00000
  Local      13.59345    15.23351    13.37240    -0.00004    -0.56307    -0.00000
  n-local   129.30863   128.37787   128.64031    -0.25654     0.40678     0.01115
  augment     1.69930     1.71601     1.72826     0.00000    -0.01003     0.00000
  Kinetic   100.77933   101.23369    99.45796    -7.60341     0.11700    -0.39451
  Fock        0.00000     0.00000     0.00000     0.00000     0.00000     0.00000
  -------------------------------------------------------------------------------------
  Total       2.60587     1.65227     0.99526    -0.00000     0.72458    -0.00000
  in kB      11.63844     7.37943     4.44508    -0.00000     3.23613    -0.00000
  external pressure =        7.82 kB  Pullay stress =        0.00 kB


 VOLUME and BASIS-vectors are now :
 -----------------------------------------------------------------------------
  energy-cutoff  :      450.00
  volume of cell :      358.73
      direct lattice vectors                 reciprocal lattice vectors
     6.278815029 -0.000000026  0.000000000     0.159265721  0.090122104  0.000901221
    -3.139411081  5.548589649 -0.055485896     0.000000001  0.180244004  0.001802440
     0.000000000 -0.102979729 10.297972898     0.000000000  0.000971162  0.097116201

  length of vectors
     6.278815029  6.375408043 10.298487783     0.182998294  0.180253015  0.097121057


 FORCES acting on ions
    electron-ion (+dipol)            ewald-force                    non-local-force                 convergence-correction
 -----------------------------------------------------------------------------------------------
   -.211E-04 -.562E-01 -.946E-03   0.437E-05 0.250E-01 -.229E-02   -.201E-07 0.312E-01 0.339E-02   0.762E-08 -.542E-05 -.710E-04
   -.211E-04 -.562E-01 -.946E-03   0.437E-05 0.250E-01 -.229E-02   -.201E-07 0.312E-01 0.339E-02   0.762E-08 -.542E-05 -.710E-04
   -.211E-04 -.562E-01 -.946E-03   0.428E-05 0.250E-01 -.229E-02   -.201E-07 0.312E-01 0.339E-02   0.762E-08 -.542E-05 -.710E-04
   -.211E-04 -.562E-01 -.946E-03   0.428E-05 0.250E-01 -.229E-02   -.201E-07 0.312E-01 0.339E-02   0.762E-08 -.542E-05 -.710E-04
   -.199E-04 -.562E-01 -.946E-03   0.271E-05 0.250E-01 -.229E-02   -.201E-07 0.312E-01 0.339E-02   0.366E-08 -.542E-05 -.710E-04
   -.199E-04 -.562E-01 -.946E-03   0.271E-05 0.250E-01 -.229E-02   -.201E-07 0.312E-01 0.339E-02   0.366E-08 -.542E-05 -.710E-04
   -.199E-04 -.562E-01 -.946E-03   0.262E-05 0.250E-01 -.229E-02   -.201E-07 0.312E-01 0.339E-02   0.366E-08 -.542E-05 -.710E-04
   -.199E-04 -.562E-01 -.946E-03   0.262E-05 0.250E-01 -.229E-02   -.201E-07 0.312E-01 0.339E-02   0.366E-08 -.542E-05 -.710E-04
   0.205E-04 0.562E-01 0.946E-03   -.341E-05 -.250E-01 0.229E-02   0.201E-07 -.312E-01 -.339E-02   -.473E-08 0.543E-05 0.710E-04
   0.205E-04 0.562E-01 0.946E-03   -.341E-05 -.250E-01 0.229E-02   0.201E-07 -.312E-01 -.339E-02   -.473E-08 0.543E-05 0.710E-04
   0.199E-04 0.562E-01 0.946E-03   -.326E-05 -.250E-01 0.229E-02   0.201E-07 -.312E-01 -.339E-02   -.473E-08 0.542E-05 0.710E-04
   0.199E-04 0.562E-01 0.946E-03   -.326E-05 -.250E-01 0.229E-02   0.201E-07 -.312E-01 -.339E-02   -.473E-08 0.542E-05 0.710E-04
   0.205E-04 0.562E-01 0.946E-03   -.372E-05 -.250E-01 0.229E-02   0.201E-07 -.312E-01 -.339E-02   -.654E-08 0.542E-05 0.710E-04
   0.205E-04 0.562E-01 0.946E-03   -.372E-05 -.250E-01 0.229E-02   0.201E-07 -.312E-01 -.339E-02   -.655E-08 0.542E-05 0.710E-04
   0.199E-04 0.562E-01 0.946E-03   -.358E-05 -.250E-01 0.229E-02   0.201E-07 -.312E-01 -.339E-02   -.654E-08 0.542E-05 0.710E-04
   0.199E-04 0.562E-01 0.946E-03   -.358E-05 -.250E-01 0.229E-02   0.201E-07 -.312E-01 -.339E-02   -.654E-08 0.542E-05 0.710E-04
 -----------------------------------------------------------------------------------------------
   -.241E-05 -.413E-05 -.107E-07   -.227E-15 -.175E-14 0.130E-17   -.434E-16 0.694E-17 0.130E-17   0.465E-11 -.790E-11 -.129E-12


 POSITION                                       TOTAL-FORCE (eV/Angst)
 -----------------------------------------------------------------------------------
     -0.00000      1.84609      1.26881         0.000000     -0.000017      0.000087
     -0.00000      1.79460      6.41780         0.000000     -0.000017      0.000087
     -1.56971      4.62038      1.24107         0.000000     -0.000017      0.000087
     -1.56971      4.56889      6.39005         0.000000     -0.000017      0.000087
      3.13940      1.84609      1.26881         0.000000     -0.000017      0.000087
      3.13940      1.79460      6.41780         0.000000     -0.000017      0.000087
      1.56970      4.62038      1.24107         0.000000     -0.000017      0.000087
      1.56970      4.56889      6.39005         0.000000     -0.000017      0.000087
      1.56970      0.87672      3.85243        -0.000000      0.000017     -0.000087
      1.56970      0.82523      9.00142        -0.000000      0.000017     -0.000087
     -0.00000      3.65101      3.82469        -0.000000      0.000017     -0.000087
     -0.00000      3.59952      8.97368        -0.000000      0.000017     -0.000087
      4.70911      0.87672      3.85243        -0.000000      0.000017     -0.000087
      4.70911      0.82523      9.00142        -0.000000      0.000017     -0.000087
      3.13941      3.65101      3.82469        -0.000000      0.000017     -0.000087
      3.13941      3.59952      8.97368        -0.000000      0.000017     -0.000087
 -----------------------------------------------------------------------------------
    total drift:                               -0.000002     -0.000004     -0.000000


--------------------------------------------------------------------------------------------------------



  FREE ENERGIE OF THE ION-ELECTRON SYSTEM (eV)
  ---------------------------------------------------
  free  energy   TOTEN  =       -24.32826429 eV

  energy  without entropy=      -24.31201402  energy(sigma->0) =      -24.32013915

 d Force = 0.1022956E-04[-0.748E-06, 0.212E-04]  d Energy = 0.1003024E-04 0.199E-06
 d Force = 0.2196244E-03[ 0.169E-03, 0.270E-03]  d Ewald  = 0.2196245E-03-0.190E-09


--------------------------------------------------------------------------------------------------------


    POTLOK:  cpu time    0.02: real time    0.03


--------------------------------------------------------------------------------------------------------




--------------------------------------------------------------------------------------------------------


  
 reached required accuracy - stopping structural energy minimisation
     LOOP+:  cpu time    3.24: real time    3.30
    4ORBIT:  cpu time    0.00: real time    0.00

 total amount of memory used by VASP on root node    46524. kBytes
========================================================================

   base      :      30000. kBytes
   nonl-proj :       3400. kBytes
   fftplans  :        978. kBytes
   grid      :       1368. kBytes
   one-center:          6. kBytes
   wavefun   :      10772. kBytes

  
  
 General timing and accounting informations for this job:
 ========================================================
  
                  Total CPU time used (sec):       34.298
                            User time (sec):       34.038
                          System time (sec):        0.260
                         Elapsed time (sec):       35.124
  
                   Maximum memory used (kb):       42572.
                   Average memory used (kb):           0.
  
                          Minor page faults:        11027
                          Major page faults:            0
                 Voluntary context switches:         3274
