Mg                                      
           1
     6.278815   -0.000000    0.000000
    -3.139411    5.548590   -0.055486
     0.000000   -0.102980   10.297973
   Mg
  16
Direct configuration=     1
   0.16666649  0.33333349  0.12500000
   0.16666649  0.33333349  0.62500000
   0.16666649  0.83333349  0.12500000
   0.16666649  0.83333349  0.62500000
   0.66666651  0.33333349  0.12500000
   0.66666651  0.33333349  0.62500000
   0.66666651  0.83333349  0.12500000
   0.66666651  0.83333349  0.62500000
   0.33333349  0.16666649  0.37500000
   0.33333349  0.16666649  0.87500000
   0.33333349  0.66666651  0.37500000
   0.33333349  0.66666651  0.87500000
   0.83333349  0.16666649  0.37500000
   0.83333349  0.16666649  0.87500000
   0.83333349  0.66666651  0.37500000
   0.83333349  0.66666651  0.87500000
Direct configuration=     2
   0.16670294  0.33340638  0.12500755
   0.16670294  0.33340638  0.62500755
   0.16670294  0.83340638  0.12500755
   0.16670294  0.83340638  0.62500755
   0.66670295  0.33340638  0.12500755
   0.66670295  0.33340638  0.62500755
   0.66670295  0.83340638  0.12500755
   0.66670295  0.83340638  0.62500755
   0.33329705  0.16659360  0.37499245
   0.33329705  0.16659360  0.87499245
   0.33329705  0.66659362  0.37499245
   0.33329705  0.66659362  0.87499245
   0.83329705  0.16659360  0.37499245
   0.83329705  0.16659360  0.87499245
   0.83329705  0.66659362  0.37499245
   0.83329705  0.66659362  0.87499245
Direct configuration=     3
   0.16681228  0.33362506  0.12503020
   0.16681228  0.33362506  0.62503020
   0.16681228  0.83362506  0.12503020
   0.16681228  0.83362506  0.62503020
   0.66681229  0.33362506  0.12503020
   0.66681229  0.33362506  0.62503020
   0.66681229  0.83362506  0.12503020
   0.66681229  0.83362506  0.62503020
   0.33318771  0.16637492  0.37496980
   0.33318771  0.16637492  0.87496980
   0.33318771  0.66637494  0.37496980
   0.33318771  0.66637494  0.87496980
   0.83318771  0.16637492  0.37496980
   0.83318771  0.16637492  0.87496980
   0.83318771  0.66637494  0.37496980
   0.83318771  0.66637494  0.87496980
Direct configuration=     4
   0.16703095  0.33406242  0.12507551
   0.16703095  0.33406242  0.62507551
   0.16703095  0.83406242  0.12507551
   0.16703095  0.83406242  0.62507551
   0.66703097  0.33406242  0.12507551
   0.66703097  0.33406242  0.62507551
   0.66703097  0.83406242  0.12507551
   0.66703097  0.83406242  0.62507551
   0.33296903  0.16593757  0.37492449
   0.33296903  0.16593757  0.87492449
   0.33296903  0.66593758  0.37492449
   0.33296903  0.66593758  0.87492449
   0.83296903  0.16593757  0.37492449
   0.83296903  0.16593757  0.87492449
   0.83296903  0.66593758  0.37492449
   0.83296903  0.66593758  0.87492449
Direct configuration=     5
   0.16746831  0.33493712  0.12516612
   0.16746831  0.33493712  0.62516612
   0.16746831  0.83493712  0.12516612
   0.16746831  0.83493712  0.62516612
   0.66746832  0.33493712  0.12516612
   0.66746832  0.33493712  0.62516612
   0.66746832  0.83493712  0.12516612
   0.66746832  0.83493712  0.62516612
   0.33253168  0.16506286  0.37483388
   0.33253168  0.16506286  0.87483388
   0.33253168  0.66506288  0.37483388
   0.33253168  0.66506288  0.87483388
   0.83253168  0.16506286  0.37483388
   0.83253168  0.16506286  0.87483388
   0.83253168  0.66506288  0.37483388
   0.83253168  0.66506288  0.87483388
Direct configuration=     6
   0.16741066  0.33482182  0.12515417
   0.16741066  0.33482182  0.62515417
   0.16741066  0.83482182  0.12515417
   0.16741066  0.83482182  0.62515417
   0.66741067  0.33482182  0.12515417
   0.66741067  0.33482182  0.62515417
   0.66741067  0.83482182  0.12515417
   0.66741067  0.83482182  0.62515417
   0.33258933  0.16517817  0.37484583
   0.33258933  0.16517817  0.87484583
   0.33258933  0.66517818  0.37484583
   0.33258933  0.66517818  0.87484583
   0.83258933  0.16517817  0.37484583
   0.83258933  0.16517817  0.87484583
   0.83258933  0.66517818  0.37484583
   0.83258933  0.66517818  0.87484583
Direct configuration=     7
   0.16748260  0.33496571  0.12505941
   0.16748260  0.33496571  0.62505941
   0.16748260  0.83496571  0.12505941
   0.16748260  0.83496571  0.62505941
   0.66748262  0.33496571  0.12505941
   0.66748262  0.33496571  0.62505941
   0.66748262  0.83496571  0.12505941
   0.66748262  0.83496571  0.62505941
   0.33251738  0.16503428  0.37494059
   0.33251738  0.16503428  0.87494059
   0.33251738  0.66503429  0.37494059
   0.33251738  0.66503429  0.87494059
   0.83251738  0.16503428  0.37494059
   0.83251738  0.16503428  0.87494059
   0.83251738  0.66503429  0.37494059
   0.83251738  0.66503429  0.87494059
Direct configuration=     8
   0.16751646  0.33503344  0.12501480
   0.16751646  0.33503344  0.62501480
   0.16751646  0.83503344  0.12501480
   0.16751646  0.83503344  0.62501480
   0.66751648  0.33503344  0.12501480
   0.66751648  0.33503344  0.62501480
   0.66751648  0.83503344  0.12501480
   0.66751648  0.83503344  0.62501480
   0.33248352  0.16496655  0.37498520
   0.33248352  0.16496655  0.87498520
   0.33248352  0.66496656  0.37498520
   0.33248352  0.66496656  0.87498520
   0.83248352  0.16496655  0.37498520
   0.83248352  0.16496655  0.87498520
   0.83248352  0.66496656  0.37498520
   0.83248352  0.66496656  0.87498520
