       N       E                     dE             d eps       ncg     rms          rms(c)
DAV:   1     0.344515301506E+02    0.34452E+02   -0.38853E+03 15984   0.661E+02
DAV:   2    -0.125592031305E+02   -0.47011E+02   -0.44328E+02 20276   0.104E+02
DAV:   3    -0.153003880327E+02   -0.27412E+01   -0.26319E+01 21556   0.275E+01
DAV:   4    -0.153465564909E+02   -0.46168E-01   -0.45665E-01 19292   0.347E+00
DAV:   5    -0.153473807560E+02   -0.82427E-03   -0.82370E-03 21584   0.403E-01    0.147E+00
RMM:   6    -0.153111564345E+02    0.36224E-01   -0.90317E-03 15984   0.724E-01    0.915E-01
RMM:   7    -0.152883196603E+02    0.22837E-01   -0.28106E-02 15984   0.128E+00    0.616E-02
RMM:   8    -0.152885418254E+02   -0.22217E-03   -0.74342E-04 16156   0.221E-01    0.161E-02
RMM:   9    -0.152885537648E+02   -0.11939E-04   -0.39547E-05 16477   0.430E-02    0.563E-03
RMM:  10    -0.152885681383E+02   -0.14374E-04   -0.89080E-06 14787   0.186E-02    0.138E-03
RMM:  11    -0.152885687537E+02   -0.61541E-06   -0.24059E-07  9665   0.335E-03
   1 F= -.15288569E+02 E0= -.15286579E+02  d E =-.152886E+02
       N       E                     dE             d eps       ncg     rms          rms(c)
DAV:   1    -0.152886482946E+02   -0.80156E-04   -0.29085E-04 19488   0.975E-02    0.240E-03
RMM:   2    -0.152886491603E+02   -0.86568E-06   -0.10130E-05 14006   0.181E-02    0.982E-04
RMM:   3    -0.152886493097E+02   -0.14944E-06   -0.37972E-07  8053   0.355E-03    0.425E-04
RMM:   4    -0.152886495095E+02   -0.19976E-06   -0.76883E-08  4984   0.188E-03
   2 F= -.15288650E+02 E0= -.15286664E+02  d E =-.807558E-04
       N       E                     dE             d eps       ncg     rms          rms(c)
DAV:   1    -0.152888741325E+02   -0.22482E-03   -0.26190E-03 17348   0.293E-01    0.708E-03
RMM:   2    -0.152888812805E+02   -0.71480E-05   -0.97653E-05 15992   0.564E-02    0.481E-04
RMM:   3    -0.152888818417E+02   -0.56119E-06   -0.38080E-06 11743   0.874E-03    0.392E-04
RMM:   4    -0.152888818578E+02   -0.16131E-07   -0.23571E-07  7765   0.294E-03
   3 F= -.15288882E+02 E0= -.15286910E+02  d E =-.313104E-03
       N       E                     dE             d eps       ncg     rms          rms(c)
DAV:   1    -0.152892767894E+02   -0.39495E-03   -0.10459E-02 16628   0.585E-01    0.141E-02
RMM:   2    -0.152893072374E+02   -0.30448E-04   -0.38938E-04 16029   0.113E-01    0.116E-03
RMM:   3    -0.152893088595E+02   -0.16221E-05   -0.15904E-05 14239   0.173E-02    0.122E-04
RMM:   4    -0.152893089201E+02   -0.60555E-07   -0.46752E-07  9327   0.417E-03
   4 F= -.15289309E+02 E0= -.15287371E+02  d E =-.740166E-03
       N       E                     dE             d eps       ncg     rms          rms(c)
DAV:   1    -0.152898616538E+02   -0.55279E-03   -0.41853E-02 16556   0.117E+00    0.284E-02
RMM:   2    -0.152899836824E+02   -0.12203E-03   -0.15332E-03 16030   0.224E-01    0.485E-03
RMM:   3    -0.152899898180E+02   -0.61355E-05   -0.63885E-05 16535   0.346E-02    0.216E-03
RMM:   4    -0.152899899452E+02   -0.12723E-06   -0.21374E-06 10989   0.739E-03
   5 F= -.15289990E+02 E0= -.15288124E+02  d E =-.142119E-02
       N       E                     dE             d eps       ncg     rms          rms(c)
DAV:   1    -0.152900160457E+02   -0.26228E-04   -0.16774E-01 16528   0.234E+00    0.569E-02
RMM:   2    -0.152905062413E+02   -0.49020E-03   -0.61137E-03 16030   0.448E-01    0.118E-02
RMM:   3    -0.152905291376E+02   -0.22896E-04   -0.28210E-04 16923   0.731E-02    0.180E-03
RMM:   4    -0.152905297929E+02   -0.65524E-06   -0.10062E-05 13100   0.154E-02    0.137E-03
RMM:   5    -0.152905299177E+02   -0.12476E-06   -0.78772E-07 10334   0.491E-03
   6 F= -.15290530E+02 E0= -.15288731E+02  d E =-.196116E-02
       N       E                     dE             d eps       ncg     rms          rms(c)
DAV:   1    -0.152905302130E+02   -0.42008E-06   -0.43283E-04 19728   0.119E-01    0.450E-03
RMM:   2    -0.152905310325E+02   -0.81951E-06   -0.15908E-05 14720   0.227E-02    0.179E-03
RMM:   3    -0.152905310142E+02    0.18308E-07   -0.50653E-07  7777   0.396E-03    0.132E-03
RMM:   4    -0.152905309663E+02    0.47890E-07   -0.14589E-07  5674   0.228E-03
   7 F= -.15290531E+02 E0= -.15288732E+02  d E =-.196221E-02
       N       E                     dE             d eps       ncg     rms          rms(c)
DAV:   1    -0.152905308578E+02    0.15638E-06   -0.34883E-05 17848   0.341E-02    0.578E-04
RMM:   2    -0.152905309358E+02   -0.77967E-07   -0.10474E-06  8652   0.625E-03    0.178E-04
RMM:   3    -0.152905309460E+02   -0.10194E-07   -0.54264E-08  4013   0.184E-03    0.195E-04
RMM:   4    -0.152905309452E+02    0.74370E-09   -0.12885E-09  1551   0.118E-03
   8 F= -.15290531E+02 E0= -.15288732E+02  d E =-.196219E-02
