Sn                                      
           1
     6.003740    0.029721    0.000000
     0.029721    5.944297    0.000000
     0.000000    0.000000    3.244169
   Sn
   4
Direct configuration=     1
   0.00000000  0.00000000  0.50000000
   0.50000000  0.00000000  0.75000000
   0.50000000  0.50000000  0.00000000
   0.00000000  0.50000000  0.25000000
Direct configuration=     2
   0.00000000 -0.00000000  0.50023658
   0.50000000  0.00000000  0.74976342
   0.50000000  0.50000000  0.00023658
  -0.00000000  0.50000000  0.24976342
Direct configuration=     3
   0.00000000 -0.00000000  0.50094631
   0.50000000  0.00000000  0.74905369
   0.50000000  0.50000000  0.00094631
  -0.00000000  0.50000000  0.24905369
Direct configuration=     4
   0.00000000 -0.00000000  0.50236579
   0.50000000  0.00000000  0.74763421
   0.50000000  0.50000000  0.00236579
  -0.00000000  0.50000000  0.24763421
Direct configuration=     5
   0.00000000 -0.00000000  0.50520473
   0.50000000  0.00000000  0.74479527
   0.50000000  0.50000000  0.00520473
  -0.00000000  0.50000000  0.24479527
Direct configuration=     6
   0.00000000 -0.00000000  0.51088261
   0.50000000  0.00000000  0.73911739
   0.50000000  0.50000000  0.01088261
  -0.00000000  0.50000000  0.23911739
Direct configuration=     7
   0.00000000 -0.00000000  0.51059173
   0.50000000  0.00000000  0.73940827
   0.50000000  0.50000000  0.01059173
  -0.00000000  0.50000000  0.23940827
Direct configuration=     8
   0.00000000 -0.00000000  0.51067582
   0.50000000  0.00000000  0.73932418
   0.50000000  0.50000000  0.01067582
  -0.00000000  0.50000000  0.23932418
