       N       E                     dE             d eps       ncg     rms          rms(c)
DAV:   1     0.559317195948E+03    0.55932E+03   -0.30458E+04 31192   0.122E+03
DAV:   2    -0.645936886403E+02   -0.62391E+03   -0.60168E+03 31000   0.298E+02
DAV:   3    -0.170145247367E+03   -0.10555E+03   -0.99257E+02 43594   0.104E+02
DAV:   4    -0.175049169990E+03   -0.49039E+01   -0.48350E+01 39560   0.242E+01
DAV:   5    -0.175145393072E+03   -0.96223E-01   -0.95876E-01 39356   0.351E+00    0.195E+01
RMM:   6    -0.163264738211E+03    0.11881E+02   -0.13305E+02 31139   0.414E+01    0.535E+00
RMM:   7    -0.161498126933E+03    0.17666E+01   -0.37741E+00 31010   0.781E+00    0.318E+00
RMM:   8    -0.161524415837E+03   -0.26289E-01   -0.66483E+00 31112   0.856E+00    0.280E+00
RMM:   9    -0.161102610943E+03    0.42180E+00   -0.31624E+00 31000   0.690E+00    0.702E-01
RMM:  10    -0.161077395703E+03    0.25215E-01   -0.10948E-01 31314   0.133E+00    0.307E-01
RMM:  11    -0.161073361661E+03    0.40340E-02   -0.19541E-02 31319   0.506E-01    0.101E-01
RMM:  12    -0.161073383894E+03   -0.22233E-04   -0.70767E-03 31940   0.238E-01    0.368E-02
RMM:  13    -0.161073329058E+03    0.54836E-04   -0.45754E-04 31968   0.843E-02    0.354E-02
RMM:  14    -0.161073289375E+03    0.39684E-04   -0.54315E-04 31019   0.872E-02    0.818E-03
RMM:  15    -0.161073285456E+03    0.39188E-05   -0.30623E-05 30269   0.200E-02    0.106E-03
RMM:  16    -0.161073285567E+03   -0.11075E-06   -0.31170E-06 21535   0.505E-03
   1 F= -.16107329E+03 E0= -.16106453E+03  d E =-.161073E+03
       N       E                     dE             d eps       ncg     rms          rms(c)
DAV:   1    -0.161078214422E+03   -0.49290E-02   -0.89118E-02 34660   0.900E-01    0.642E-02
RMM:   2    -0.161078206083E+03    0.83392E-05   -0.97726E-04 31334   0.119E-01    0.451E-02
RMM:   3    -0.161078131532E+03    0.74552E-04   -0.22201E-04 32151   0.429E-02    0.117E-02
RMM:   4    -0.161078151033E+03   -0.19502E-04   -0.34131E-04 31019   0.679E-02    0.208E-02
RMM:   5    -0.161078128237E+03    0.22796E-04   -0.74303E-05 31000   0.381E-02    0.341E-03
RMM:   6    -0.161078129775E+03   -0.15377E-05   -0.13307E-05 27928   0.841E-03    0.151E-03
RMM:   7    -0.161078128961E+03    0.81365E-06   -0.45333E-07 18581   0.274E-03
   2 F= -.16107813E+03 E0= -.16106932E+03  d E =-.484339E-02
       N       E                     dE             d eps       ncg     rms          rms(c)
DAV:   1    -0.161086485790E+03   -0.83560E-02   -0.80177E-01 32164   0.270E+00    0.193E-01
RMM:   2    -0.161085596729E+03    0.88906E-03   -0.83961E-03 31171   0.347E-01    0.137E-02
RMM:   3    -0.161085693581E+03   -0.96852E-04   -0.96996E-04 36034   0.858E-02    0.138E-02
RMM:   4    -0.161085686247E+03    0.73339E-05   -0.54391E-05 31352   0.302E-02    0.292E-03
RMM:   5    -0.161085687151E+03   -0.90423E-06   -0.12174E-05 29334   0.108E-02    0.324E-03
RMM:   6    -0.161085687679E+03   -0.52760E-06   -0.21381E-06 20488   0.614E-03
   3 F= -.16108569E+03 E0= -.16107666E+03  d E =-.124021E-01
       N       E                     dE             d eps       ncg     rms          rms(c)
DAV:   1    -0.161085995740E+03   -0.30859E-03   -0.40716E-02 33984   0.608E-01    0.436E-02
RMM:   2    -0.161085951799E+03    0.43941E-04   -0.41828E-04 31198   0.778E-02    0.358E-03
RMM:   3    -0.161085955530E+03   -0.37313E-05   -0.51404E-05 35618   0.202E-02    0.115E-03
RMM:   4    -0.161085955550E+03   -0.20039E-07   -0.10501E-06 18811   0.425E-03
   4 F= -.16108596E+03 E0= -.16107686E+03  d E =-.126700E-01
       N       E                     dE             d eps       ncg     rms          rms(c)
DAV:   1    -0.161087475720E+03   -0.15202E-02   -0.26372E-02 33730   0.522E-01    0.288E-02
RMM:   2    -0.161087603025E+03   -0.12731E-03   -0.13792E-03 31000   0.159E-01    0.168E-02
RMM:   3    -0.161087913396E+03   -0.31037E-03   -0.23441E-03 31023   0.172E-01    0.803E-02
RMM:   4    -0.161087595166E+03    0.31823E-03   -0.91765E-04 31001   0.123E-01    0.204E-02
RMM:   5    -0.161087602074E+03   -0.69083E-05   -0.27657E-04 32936   0.451E-02    0.457E-03
RMM:   6    -0.161087601782E+03    0.29192E-06   -0.11010E-05 25857   0.101E-02    0.629E-03
RMM:   7    -0.161087599191E+03    0.25909E-05   -0.86640E-06 26359   0.115E-02    0.130E-03
RMM:   8    -0.161087599073E+03    0.11794E-06   -0.18975E-06 19549   0.376E-03
   5 F= -.16108760E+03 E0= -.16107852E+03  d E =-.164352E-02
       N       E                     dE             d eps       ncg     rms          rms(c)
DAV:   1    -0.161088411817E+03   -0.81263E-03   -0.10968E-01 32050   0.106E+00    0.589E-02
RMM:   2    -0.161088892405E+03   -0.48059E-03   -0.54949E-03 31000   0.334E-01    0.136E-02
RMM:   3    -0.161088931886E+03   -0.39482E-04   -0.42574E-04 35919   0.778E-02    0.126E-02
RMM:   4    -0.161088927990E+03    0.38966E-05   -0.57956E-05 31248   0.311E-02    0.260E-03
RMM:   5    -0.161088929079E+03   -0.10894E-05   -0.96485E-06 28573   0.981E-03    0.321E-03
RMM:   6    -0.161088928228E+03    0.85100E-06   -0.22855E-06 20569   0.660E-03
   6 F= -.16108893E+03 E0= -.16107989E+03  d E =-.297268E-02
       N       E                     dE             d eps       ncg     rms          rms(c)
DAV:   1    -0.161088928259E+03    0.82015E-06   -0.72491E-06 34036   0.824E-03    0.147E-03
RMM:   2    -0.161088928396E+03   -0.13704E-06   -0.41621E-07 16789   0.299E-03    0.739E-04
RMM:   3    -0.161088928493E+03   -0.96627E-07   -0.13718E-07 14498   0.126E-03    0.329E-04
RMM:   4    -0.161088928524E+03   -0.31381E-07   -0.39510E-08  8315   0.915E-04
   7 F= -.16108893E+03 E0= -.16107989E+03  d E =-.297297E-02
       N       E                     dE             d eps       ncg     rms          rms(c)
DAV:   1    -0.161088930783E+03   -0.22907E-05   -0.65769E-05 33428   0.254E-02    0.171E-03
RMM:   2    -0.161088931046E+03   -0.26309E-06   -0.49517E-06 25725   0.908E-03    0.325E-03
RMM:   3    -0.161088930832E+03    0.21443E-06   -0.11973E-06 16092   0.496E-03    0.129E-03
RMM:   4    -0.161088931235E+03   -0.40297E-06   -0.22908E-06 19341   0.421E-03
   8 F= -.16108893E+03 E0= -.16107989E+03  d E =-.271091E-05
       N       E                     dE             d eps       ncg     rms          rms(c)
DAV:   1    -0.161088931864E+03   -0.10320E-05   -0.68889E-05 33596   0.261E-02    0.169E-03
RMM:   2    -0.161088932241E+03   -0.37670E-06   -0.37210E-06 21619   0.872E-03    0.180E-03
RMM:   3    -0.161088932038E+03    0.20237E-06   -0.48299E-07 15977   0.373E-03    0.983E-04
RMM:   4    -0.161088931863E+03    0.17534E-06   -0.21794E-07 15906   0.166E-03
   9 F= -.16108893E+03 E0= -.16107989E+03  d E =-.333890E-05
       N       E                     dE             d eps       ncg     rms          rms(c)
DAV:   1    -0.161088931842E+03    0.19616E-06   -0.12281E-06 21150   0.351E-03    0.333E-04
RMM:   2    -0.161088931831E+03    0.10939E-07   -0.16227E-07 15582   0.166E-03    0.170E-04
RMM:   3    -0.161088931858E+03   -0.26652E-07   -0.13787E-08  4656   0.826E-04    0.138E-04
RMM:   4    -0.161088931880E+03   -0.22269E-07   -0.17670E-09  2123   0.741E-04
  10 F= -.16108893E+03 E0= -.16107989E+03  d E =-.335606E-05
       N       E                     dE             d eps       ncg     rms          rms(c)
DAV:   1    -0.161088931910E+03   -0.52546E-07   -0.53218E-08 18908   0.892E-04    0.894E-05
RMM:   2    -0.161088931905E+03    0.58163E-08   -0.52332E-10  2125   0.597E-04    0.514E-05
RMM:   3    -0.161088931894E+03    0.10500E-07   -0.36033E-09  2205   0.688E-04    0.308E-05
RMM:   4    -0.161088931888E+03    0.66341E-08   -0.11023E-12   599   0.623E-04
  11 F= -.16108893E+03 E0= -.16107989E+03  d E =-.336339E-05
       N       E                     dE             d eps       ncg     rms          rms(c)
DAV:   1    -0.161088931882E+03    0.12484E-07   -0.83287E-08 17966   0.102E-03    0.153E-04
RMM:   2    -0.161088931889E+03   -0.71794E-08   -0.72219E-09  3710   0.726E-04    0.454E-05
RMM:   3    -0.161088931888E+03    0.12361E-08   -0.13053E-09  1159   0.580E-04    0.334E-05
RMM:   4    -0.161088931889E+03   -0.94678E-09   -0.43148E-11   507   0.551E-04
  12 F= -.16108893E+03 E0= -.16107989E+03  d E =-.336443E-05
       N       E                     dE             d eps       ncg     rms          rms(c)
DAV:   1    -0.161088931895E+03   -0.77622E-08   -0.77212E-07 19668   0.270E-03    0.203E-04
RMM:   2    -0.161088931926E+03   -0.30736E-07   -0.17726E-08  4714   0.790E-04    0.159E-04
RMM:   3    -0.161088931906E+03    0.19788E-07   -0.20708E-09  1105   0.687E-04    0.102E-04
RMM:   4    -0.161088931899E+03    0.68160E-08   -0.39798E-09  2040   0.747E-04
  13 F= -.16108893E+03 E0= -.16107989E+03  d E =-.109467E-07
