AlO                                     
           1
     4.858861    0.000000   -0.048108
     0.000000    8.195780    0.000000
    -0.085653    0.000000    8.565251
   Ti   Si
   8  16
Direct configuration=     1
   0.00000000  0.00000000  0.00000000
   0.75000000  0.75000000  0.25000000
   0.00000000  0.50000000  0.50000000
   0.75000000  0.25000000  0.75000000
   0.50000000  0.00000000  0.50000000
   0.25000000  0.75000000  0.75000000
   0.50000000  0.50000000  0.00000000
   0.25000000  0.25000000  0.25000000
   0.00000000  0.33673444  0.00000000
   0.00000000  0.66326559  0.00000000
   0.75000000  0.08673443  0.25000000
   0.75000000  0.41326556  0.25000000
   0.00000000  0.83673441  0.50000000
   0.00000000  0.16326557  0.50000000
   0.75000000  0.58673441  0.75000000
   0.75000000  0.91326559  0.75000000
   0.50000000  0.33673444  0.50000000
   0.50000000  0.66326559  0.50000000
   0.25000000  0.08673443  0.75000000
   0.25000000  0.41326556  0.75000000
   0.50000000  0.83673441  0.00000000
   0.50000000  0.16326557  0.00000000
   0.25000000  0.58673441  0.25000000
   0.25000000  0.91326559  0.25000000
Direct configuration=     2
  -0.00000000  0.00046814 -0.00000000
   0.75000000  0.74953186  0.25000000
  -0.00000000  0.50046814  0.50000000
   0.75000000  0.24953186  0.75000000
   0.50000000  0.00046814  0.50000000
   0.25000000  0.74953186  0.75000000
   0.50000000  0.50046814 -0.00000000
   0.25000000  0.24953186  0.25000000
  -0.00000000  0.33687995 -0.00000000
   0.00000000  0.66349328 -0.00000000
   0.75000000  0.08650673  0.25000000
   0.75000000  0.41312005  0.25000000
  -0.00000000  0.83687992  0.50000000
  -0.00000000  0.16349327  0.50000000
   0.75000000  0.58650672  0.75000000
   0.75000000  0.91312008  0.75000000
   0.50000000  0.33687995  0.50000000
   0.50000000  0.66349328  0.50000000
   0.25000000  0.08650673  0.75000000
   0.25000000  0.41312005  0.75000000
   0.50000000  0.83687992  0.00000000
   0.50000000  0.16349327 -0.00000000
   0.25000000  0.58650672  0.25000000
   0.25000000  0.91312008  0.25000000
Direct configuration=     3
  -0.00000000  0.00187255 -0.00000000
   0.75000000  0.74812745  0.25000000
  -0.00000000  0.50187255  0.50000000
   0.75000000  0.24812745  0.75000000
   0.50000000  0.00187255  0.50000000
   0.25000000  0.74812745  0.75000000
   0.50000000  0.50187255 -0.00000000
   0.25000000  0.24812745  0.25000000
  -0.00000000  0.33731645 -0.00000000
   0.00000000  0.66417636 -0.00000000
   0.75000000  0.08582366  0.25000000
   0.75000000  0.41268355  0.25000000
  -0.00000000  0.83731642  0.50000000
  -0.00000000  0.16417634  0.50000000
   0.75000000  0.58582364  0.75000000
   0.75000000  0.91268358  0.75000000
   0.50000000  0.33731645  0.50000000
   0.50000000  0.66417636  0.50000000
   0.25000000  0.08582366  0.75000000
   0.25000000  0.41268355  0.75000000
   0.50000000  0.83731642  0.00000000
   0.50000000  0.16417634 -0.00000000
   0.25000000  0.58582364  0.25000000
   0.25000000  0.91268358  0.25000000
Direct configuration=     4
  -0.00000000  0.00218896 -0.00000000
   0.75000000  0.74781104  0.25000000
  -0.00000000  0.50218896  0.50000000
   0.75000000  0.24781104  0.75000000
   0.50000000  0.00218896  0.50000000
   0.25000000  0.74781104  0.75000000
   0.50000000  0.50218896 -0.00000000
   0.25000000  0.24781104  0.25000000
  -0.00000000  0.33741480 -0.00000000
   0.00000000  0.66433026 -0.00000000
   0.75000000  0.08566976  0.25000000
   0.75000000  0.41258520  0.25000000
  -0.00000000  0.83741477  0.50000000
  -0.00000000  0.16433024  0.50000000
   0.75000000  0.58566974  0.75000000
   0.75000000  0.91258523  0.75000000
   0.50000000  0.33741480  0.50000000
   0.50000000  0.66433026  0.50000000
   0.25000000  0.08566976  0.75000000
   0.25000000  0.41258520  0.75000000
   0.50000000  0.83741477  0.00000000
   0.50000000  0.16433024 -0.00000000
   0.25000000  0.58566974  0.25000000
   0.25000000  0.91258523  0.25000000
Direct configuration=     5
  -0.00000000  0.00214789 -0.00000000
   0.75000000  0.74785211  0.25000000
  -0.00000000  0.50214789  0.50000000
   0.75000000  0.24785211  0.75000000
   0.50000000  0.00214789  0.50000000
   0.25000000  0.74785211  0.75000000
   0.50000000  0.50214789 -0.00000000
   0.25000000  0.24785211  0.25000000
  -0.00000000  0.33772883 -0.00000000
   0.00000000  0.66468006  0.00000000
   0.75000000  0.08531996  0.25000000
   0.75000000  0.41227117  0.25000000
  -0.00000000  0.83772880  0.50000000
  -0.00000000  0.16468004  0.50000000
   0.75000000  0.58531994  0.75000000
   0.75000000  0.91227120  0.75000000
   0.50000000  0.33772883  0.50000000
   0.50000000  0.66468006  0.50000000
   0.25000000  0.08531996  0.75000000
   0.25000000  0.41227117  0.75000000
   0.50000000  0.83772880  0.00000000
   0.50000000  0.16468004 -0.00000000
   0.25000000  0.58531994  0.25000000
   0.25000000  0.91227120  0.25000000
Direct configuration=     6
  -0.00000000  0.00206413 -0.00000000
   0.75000000  0.74793587  0.25000000
  -0.00000000  0.50206413  0.50000000
   0.75000000  0.24793587  0.75000000
   0.50000000  0.00206413  0.50000000
   0.25000000  0.74793587  0.75000000
   0.50000000  0.50206413 -0.00000000
   0.25000000  0.24793587  0.25000000
  -0.00000000  0.33836927 -0.00000000
   0.00000000  0.66539344  0.00000000
   0.75000000  0.08460657  0.25000000
   0.75000000  0.41163073  0.25000000
  -0.00000000  0.83836924  0.50000000
  -0.00000000  0.16539343  0.50000000
   0.75000000  0.58460656  0.75000000
   0.75000000  0.91163076  0.75000000
   0.50000000  0.33836927  0.50000000
   0.50000000  0.66539344  0.50000000
   0.25000000  0.08460657  0.75000000
   0.25000000  0.41163073  0.75000000
   0.50000000  0.83836924  0.00000000
   0.50000000  0.16539343 -0.00000000
   0.25000000  0.58460656  0.25000000
   0.25000000  0.91163076  0.25000000
Direct configuration=     7
  -0.00000000  0.00206471 -0.00000000
   0.75000000  0.74793529  0.25000000
  -0.00000000  0.50206471  0.50000000
   0.75000000  0.24793529  0.75000000
   0.50000000  0.00206471  0.50000000
   0.25000000  0.74793529  0.75000000
   0.50000000  0.50206471 -0.00000000
   0.25000000  0.24793529  0.25000000
  -0.00000000  0.33836487 -0.00000000
   0.00000000  0.66538854  0.00000000
   0.75000000  0.08461147  0.25000000
   0.75000000  0.41163513  0.25000000
  -0.00000000  0.83836484  0.50000000
  -0.00000000  0.16538853  0.50000000
   0.75000000  0.58461146  0.75000000
   0.75000000  0.91163516  0.75000000
   0.50000000  0.33836487  0.50000000
   0.50000000  0.66538854  0.50000000
   0.25000000  0.08461147  0.75000000
   0.25000000  0.41163513  0.75000000
   0.50000000  0.83836484  0.00000000
   0.50000000  0.16538853 -0.00000000
   0.25000000  0.58461146  0.25000000
   0.25000000  0.91163516  0.25000000
Direct configuration=     8
   0.00000000  0.00206932  0.00000000
   0.75000000  0.74793068  0.25000000
  -0.00000000  0.50206932  0.50000000
   0.75000000  0.24793068  0.75000000
   0.50000000  0.00206932  0.50000000
   0.25000000  0.74793068  0.75000000
   0.50000000  0.50206932 -0.00000000
   0.25000000  0.24793068  0.25000000
  -0.00000000  0.33838166 -0.00000000
   0.00000000  0.66537692  0.00000000
   0.75000000  0.08462310  0.25000000
   0.75000000  0.41161834  0.25000000
  -0.00000000  0.83838163  0.50000000
  -0.00000000  0.16537690  0.50000000
   0.75000000  0.58462308  0.75000000
   0.75000000  0.91161837  0.75000000
   0.50000000  0.33838166  0.50000000
   0.50000000  0.66537692  0.50000000
   0.25000000  0.08462310  0.75000000
   0.25000000  0.41161834  0.75000000
   0.50000000  0.83838163  0.00000000
   0.50000000  0.16537690 -0.00000000
   0.25000000  0.58462308  0.25000000
   0.25000000  0.91161837  0.25000000
Direct configuration=     9
   0.00000000  0.00207402  0.00000000
   0.75000000  0.74792598  0.25000000
  -0.00000000  0.50207402  0.50000000
   0.75000000  0.24792598  0.75000000
   0.50000000  0.00207402  0.50000000
   0.25000000  0.74792598  0.75000000
   0.50000000  0.50207402 -0.00000000
   0.25000000  0.24792598  0.25000000
  -0.00000000  0.33839873 -0.00000000
   0.00000000  0.66536510  0.00000000
   0.75000000  0.08463491  0.25000000
   0.75000000  0.41160127  0.25000000
  -0.00000000  0.83839870  0.50000000
  -0.00000000  0.16536509  0.50000000
   0.75000000  0.58463490  0.75000000
   0.75000000  0.91160130  0.75000000
   0.50000000  0.33839873  0.50000000
   0.50000000  0.66536510  0.50000000
   0.25000000  0.08463491  0.75000000
   0.25000000  0.41160127  0.75000000
   0.50000000  0.83839870  0.00000000
   0.50000000  0.16536509 -0.00000000
   0.25000000  0.58463490  0.25000000
   0.25000000  0.91160130  0.25000000
Direct configuration=    10
   0.00000000  0.00207461  0.00000000
   0.75000000  0.74792539  0.25000000
  -0.00000000  0.50207461  0.50000000
   0.75000000  0.24792539  0.75000000
   0.50000000  0.00207461  0.50000000
   0.25000000  0.74792539  0.75000000
   0.50000000  0.50207461 -0.00000000
   0.25000000  0.24792539  0.25000000
  -0.00000000  0.33840090 -0.00000000
   0.00000000  0.66536360  0.00000000
   0.75000000  0.08463641  0.25000000
   0.75000000  0.41159910  0.25000000
  -0.00000000  0.83840087  0.50000000
  -0.00000000  0.16536359  0.50000000
   0.75000000  0.58463640  0.75000000
   0.75000000  0.91159913  0.75000000
   0.50000000  0.33840090  0.50000000
   0.50000000  0.66536360  0.50000000
   0.25000000  0.08463641  0.75000000
   0.25000000  0.41159910  0.75000000
   0.50000000  0.83840087  0.00000000
   0.50000000  0.16536359 -0.00000000
   0.25000000  0.58463640  0.25000000
   0.25000000  0.91159913  0.25000000
Direct configuration=    11
   0.00000000  0.00207468  0.00000000
   0.75000000  0.74792532  0.25000000
  -0.00000000  0.50207468  0.50000000
   0.75000000  0.24792532  0.75000000
   0.50000000  0.00207468  0.50000000
   0.25000000  0.74792532  0.75000000
   0.50000000  0.50207468 -0.00000000
   0.25000000  0.24792532  0.25000000
  -0.00000000  0.33840115 -0.00000000
   0.00000000  0.66536342  0.00000000
   0.75000000  0.08463659  0.25000000
   0.75000000  0.41159885  0.25000000
  -0.00000000  0.83840112  0.50000000
  -0.00000000  0.16536341  0.50000000
   0.75000000  0.58463658  0.75000000
   0.75000000  0.91159888  0.75000000
   0.50000000  0.33840115  0.50000000
   0.50000000  0.66536342  0.50000000
   0.25000000  0.08463659  0.75000000
   0.25000000  0.41159885  0.75000000
   0.50000000  0.83840112  0.00000000
   0.50000000  0.16536341 -0.00000000
   0.25000000  0.58463658  0.25000000
   0.25000000  0.91159888  0.25000000
Direct configuration=    12
   0.00000000  0.00207482  0.00000000
   0.75000000  0.74792518  0.25000000
  -0.00000000  0.50207482  0.50000000
   0.75000000  0.24792518  0.75000000
   0.50000000  0.00207482  0.50000000
   0.25000000  0.74792518  0.75000000
   0.50000000  0.50207482 -0.00000000
   0.25000000  0.24792518  0.25000000
  -0.00000000  0.33840166 -0.00000000
   0.00000000  0.66536307  0.00000000
   0.75000000  0.08463694  0.25000000
   0.75000000  0.41159834  0.25000000
  -0.00000000  0.83840163  0.50000000
  -0.00000000  0.16536306  0.50000000
   0.75000000  0.58463693  0.75000000
   0.75000000  0.91159837  0.75000000
   0.50000000  0.33840166  0.50000000
   0.50000000  0.66536307  0.50000000
   0.25000000  0.08463694  0.75000000
   0.25000000  0.41159834  0.75000000
   0.50000000  0.83840163  0.00000000
   0.50000000  0.16536306 -0.00000000
   0.25000000  0.58463693  0.25000000
   0.25000000  0.91159837  0.25000000
Direct configuration=    13
   0.00000000  0.00207347  0.00000000
   0.75000000  0.74792653  0.25000000
  -0.00000000  0.50207347  0.50000000
   0.75000000  0.24792653  0.75000000
   0.50000000  0.00207347  0.50000000
   0.25000000  0.74792653  0.75000000
   0.50000000  0.50207347 -0.00000000
   0.25000000  0.24792653  0.25000000
  -0.00000000  0.33840175 -0.00000000
   0.00000000  0.66536255  0.00000000
   0.75000000  0.08463747  0.25000000
   0.75000000  0.41159825  0.25000000
  -0.00000000  0.83840172  0.50000000
  -0.00000000  0.16536253  0.50000000
   0.75000000  0.58463745  0.75000000
   0.75000000  0.91159828  0.75000000
   0.50000000  0.33840175  0.50000000
   0.50000000  0.66536255  0.50000000
   0.25000000  0.08463747  0.75000000
   0.25000000  0.41159825  0.75000000
   0.50000000  0.83840172  0.00000000
   0.50000000  0.16536253  0.00000000
   0.25000000  0.58463745  0.25000000
   0.25000000  0.91159828  0.25000000
