       N       E                     dE             d eps       ncg     rms          rms(c)
DAV:   1     0.560643573206E+03    0.56064E+03   -0.30477E+04 31192   0.122E+03
DAV:   2    -0.644308848356E+02   -0.62507E+03   -0.60252E+03 31000   0.298E+02
DAV:   3    -0.170235372108E+03   -0.10580E+03   -0.99558E+02 43578   0.104E+02
DAV:   4    -0.175135535588E+03   -0.49002E+01   -0.48331E+01 39544   0.243E+01
DAV:   5    -0.175233481815E+03   -0.97946E-01   -0.97594E-01 39410   0.353E+00    0.195E+01
RMM:   6    -0.163329141304E+03    0.11904E+02   -0.13285E+02 31146   0.414E+01    0.534E+00
RMM:   7    -0.161589571800E+03    0.17396E+01   -0.37472E+00 31015   0.776E+00    0.319E+00
RMM:   8    -0.161624717791E+03   -0.35146E-01   -0.67571E+00 31114   0.866E+00    0.283E+00
RMM:   9    -0.161189441206E+03    0.43528E+00   -0.31586E+00 31001   0.692E+00    0.669E-01
RMM:  10    -0.161167839250E+03    0.21602E-01   -0.11035E-01 31387   0.128E+00    0.316E-01
RMM:  11    -0.161163408914E+03    0.44303E-02   -0.19457E-02 31188   0.524E-01    0.103E-01
RMM:  12    -0.161163442971E+03   -0.34056E-04   -0.75677E-03 32013   0.240E-01    0.392E-02
RMM:  13    -0.161163385541E+03    0.57430E-04   -0.49192E-04 31792   0.906E-02    0.388E-02
RMM:  14    -0.161163328847E+03    0.56694E-04   -0.42008E-04 31076   0.765E-02    0.381E-03
RMM:  15    -0.161163333342E+03   -0.44944E-05   -0.50515E-05 29803   0.123E-02    0.360E-03
RMM:  16    -0.161163332579E+03    0.76251E-06   -0.36383E-06 22964   0.773E-03
   1 F= -.16116333E+03 E0= -.16115448E+03  d E =-.161163E+03
       N       E                     dE             d eps       ncg     rms          rms(c)
DAV:   1    -0.161164534140E+03   -0.12008E-02   -0.21249E-02 35382   0.440E-01    0.311E-02
RMM:   2    -0.161164567718E+03   -0.33577E-04   -0.42217E-04 31250   0.743E-02    0.323E-02
RMM:   3    -0.161164514236E+03    0.53481E-04   -0.31537E-04 31024   0.595E-02    0.591E-03
RMM:   4    -0.161164519617E+03   -0.53804E-05   -0.40611E-05 32286   0.179E-02    0.122E-02
RMM:   5    -0.161164515940E+03    0.36770E-05   -0.61943E-05 31009   0.273E-02    0.183E-03
RMM:   6    -0.161164514882E+03    0.10575E-05   -0.12499E-06 18638   0.428E-03    0.436E-04
RMM:   7    -0.161164514819E+03    0.63723E-07   -0.26309E-07 17569   0.202E-03
   2 F= -.16116451E+03 E0= -.16115565E+03  d E =-.118224E-02
       N       E                     dE             d eps       ncg     rms          rms(c)
DAV:   1    -0.161166629751E+03   -0.21149E-02   -0.19119E-01 33424   0.132E+00    0.934E-02
RMM:   2    -0.161166428580E+03    0.20117E-03   -0.20099E-03 31176   0.171E-01    0.926E-03
RMM:   3    -0.161166449425E+03   -0.20845E-04   -0.23031E-04 35969   0.422E-02    0.766E-03
RMM:   4    -0.161166447306E+03    0.21189E-05   -0.11039E-05 31098   0.135E-02    0.334E-03
RMM:   5    -0.161166446735E+03    0.57113E-06   -0.42418E-06 23669   0.708E-03
   3 F= -.16116645E+03 E0= -.16115751E+03  d E =-.311416E-02
       N       E                     dE             d eps       ncg     rms          rms(c)
DAV:   1    -0.161166569888E+03   -0.12258E-03   -0.16494E-02 33988   0.388E-01    0.274E-02
RMM:   2    -0.161166552951E+03    0.16937E-04   -0.17322E-04 31187   0.504E-02    0.114E-03
RMM:   3    -0.161166554734E+03   -0.17828E-05   -0.19796E-05 32461   0.126E-02    0.151E-03
RMM:   4    -0.161166554744E+03   -0.96759E-08   -0.60878E-07 18682   0.350E-03
   4 F= -.16116655E+03 E0= -.16115759E+03  d E =-.322216E-02
       N       E                     dE             d eps       ncg     rms          rms(c)
DAV:   1    -0.161166920667E+03   -0.36593E-03   -0.66446E-03 33802   0.261E-01    0.144E-02
RMM:   2    -0.161167094007E+03   -0.17334E-03   -0.12043E-03 31042   0.133E-01    0.513E-02
RMM:   3    -0.161166956334E+03    0.13767E-03   -0.10253E-03 31003   0.119E-01    0.100E-02
RMM:   4    -0.161166960763E+03   -0.44292E-05   -0.74225E-05 31073   0.186E-02    0.166E-02
RMM:   5    -0.161166953112E+03    0.76507E-05   -0.12016E-05 29304   0.107E-02    0.101E-02
RMM:   6    -0.161166951208E+03    0.19047E-05   -0.28097E-05 30099   0.177E-02    0.146E-03
RMM:   7    -0.161166951520E+03   -0.31209E-06   -0.36546E-06 23283   0.487E-03
   5 F= -.16116695E+03 E0= -.16115800E+03  d E =-.396776E-03
       N       E                     dE             d eps       ncg     rms          rms(c)
DAV:   1    -0.161167141756E+03   -0.19055E-03   -0.26580E-02 32740   0.522E-01    0.290E-02
RMM:   2    -0.161167255163E+03   -0.11341E-03   -0.13092E-03 31000   0.161E-01    0.476E-03
RMM:   3    -0.161167276110E+03   -0.20947E-04   -0.17832E-04 31964   0.518E-02    0.180E-02
RMM:   4    -0.161167263877E+03    0.12233E-04   -0.64891E-05 31003   0.307E-02    0.358E-03
RMM:   5    -0.161167264956E+03   -0.10793E-05   -0.15676E-05 29695   0.112E-02    0.217E-03
RMM:   6    -0.161167264517E+03    0.43972E-06   -0.65497E-07 18487   0.373E-03
   6 F= -.16116726E+03 E0= -.16115832E+03  d E =-.709773E-03
       N       E                     dE             d eps       ncg     rms          rms(c)
DAV:   1    -0.161167264290E+03    0.66594E-06   -0.66967E-06 34906   0.833E-03    0.737E-04
RMM:   2    -0.161167264312E+03   -0.21024E-07   -0.34530E-07 16372   0.267E-03    0.661E-04
RMM:   3    -0.161167264339E+03   -0.27523E-07   -0.69026E-08 14545   0.137E-03    0.368E-04
RMM:   4    -0.161167264369E+03   -0.29785E-07   -0.74341E-09  3407   0.755E-04
   7 F= -.16116726E+03 E0= -.16115832E+03  d E =-.709625E-03
       N       E                     dE             d eps       ncg     rms          rms(c)
DAV:   1    -0.161167264382E+03   -0.43341E-07   -0.44690E-07 19166   0.242E-03    0.162E-04
RMM:   2    -0.161167264411E+03   -0.28386E-07   -0.12622E-08  5793   0.870E-04    0.108E-04
RMM:   3    -0.161167264414E+03   -0.29609E-08   -0.39160E-09  2369   0.758E-04    0.661E-05
RMM:   4    -0.161167264431E+03   -0.16821E-07   -0.12284E-10  1110   0.738E-04
   8 F= -.16116726E+03 E0= -.16115832E+03  d E =-.709687E-03
       N       E                     dE             d eps       ncg     rms          rms(c)
DAV:   1    -0.161167264429E+03   -0.15014E-07   -0.11829E-07 18752   0.116E-03    0.144E-04
RMM:   2    -0.161167264390E+03    0.38648E-07   -0.45391E-10  1550   0.547E-04    0.369E-05
RMM:   3    -0.161167264392E+03   -0.14559E-08   -0.90722E-09  4438   0.672E-04    0.697E-05
RMM:   4    -0.161167264402E+03   -0.10306E-07    0.00000E+00   790   0.516E-04
   9 F= -.16116726E+03 E0= -.16115832E+03  d E =-.709658E-03
       N       E                     dE             d eps       ncg     rms          rms(c)
DAV:   1    -0.161167264407E+03   -0.15004E-07   -0.11944E-08 17912   0.493E-04    0.763E-05
RMM:   2    -0.161167264416E+03   -0.98600E-08    0.00000E+00   873   0.233E-04    0.325E-05
RMM:   3    -0.161167264408E+03    0.79462E-08    0.00000E+00   677   0.257E-04    0.269E-05
RMM:   4    -0.161167264404E+03    0.46214E-08    0.00000E+00   586   0.255E-04
  10 F= -.16116726E+03 E0= -.16115832E+03  d E =-.709660E-03
       N       E                     dE             d eps       ncg     rms          rms(c)
DAV:   1    -0.161167264402E+03    0.67785E-08   -0.31084E-09 17858   0.286E-04    0.350E-05
RMM:   2    -0.161167264409E+03   -0.76386E-08    0.00000E+00   732   0.144E-04    0.210E-05
RMM:   3    -0.161167264410E+03   -0.65006E-09    0.00000E+00   575   0.191E-04    0.110E-05
RMM:   4    -0.161167264411E+03   -0.10812E-08    0.00000E+00   495   0.195E-04
  11 F= -.16116726E+03 E0= -.16115832E+03  d E =-.709667E-03
       N       E                     dE             d eps       ncg     rms          rms(c)
DAV:   1    -0.161167264878E+03   -0.46837E-06   -0.13656E-05 32392   0.116E-02    0.820E-04
RMM:   2    -0.161167265051E+03   -0.17272E-06   -0.11345E-06 15730   0.482E-03    0.108E-03
RMM:   3    -0.161167265680E+03   -0.62848E-06   -0.11599E-06 15820   0.292E-03    0.239E-03
RMM:   4    -0.161167264928E+03    0.75188E-06   -0.72651E-07 15652   0.403E-03
  12 F= -.16116726E+03 E0= -.16115832E+03  d E =-.516612E-06
       N       E                     dE             d eps       ncg     rms          rms(c)
DAV:   1    -0.161167265031E+03    0.64905E-06   -0.11003E-05 33142   0.101E-02    0.105E-03
RMM:   2    -0.161167265044E+03   -0.13108E-07   -0.47722E-07 15727   0.336E-03    0.919E-04
RMM:   3    -0.161167265203E+03   -0.15958E-06   -0.19601E-07 15623   0.164E-03    0.828E-04
RMM:   4    -0.161167265193E+03    0.10457E-07   -0.90786E-08 14119   0.169E-03
  13 F= -.16116727E+03 E0= -.16115832E+03  d E =-.781673E-06
       N       E                     dE             d eps       ncg     rms          rms(c)
DAV:   1    -0.161167264855E+03    0.34827E-06   -0.40707E-05 32164   0.199E-02    0.175E-03
RMM:   2    -0.161167264951E+03   -0.96403E-07   -0.16894E-06 16572   0.623E-03    0.926E-04
RMM:   3    -0.161167264957E+03   -0.58725E-08   -0.28742E-07 15668   0.251E-03    0.701E-04
RMM:   4    -0.161167264942E+03    0.15317E-07   -0.12956E-07 15537   0.170E-03
  14 F= -.16116726E+03 E0= -.16115832E+03  d E =-.530822E-06
       N       E                     dE             d eps       ncg     rms          rms(c)
DAV:   1    -0.161167265100E+03   -0.14279E-06   -0.24824E-05 32142   0.157E-02    0.107E-03
RMM:   2    -0.161167265135E+03   -0.35455E-07   -0.10789E-06 15662   0.508E-03    0.364E-04
RMM:   3    -0.161167265128E+03    0.69795E-08   -0.17603E-07 15530   0.192E-03    0.331E-04
RMM:   4    -0.161167265191E+03   -0.62686E-07   -0.25306E-08  9382   0.102E-03
  15 F= -.16116727E+03 E0= -.16115832E+03  d E =-.780090E-06
