AlO                                     
           1
     4.834807    0.000000   -0.024054
     0.000000    8.237173    0.000000
    -0.042826    0.000000    8.565251
   Ti   Si
   8  16
Direct configuration=     1
   0.00000000  0.00000000  0.00000000
   0.75000000  0.75000000  0.25000000
   0.00000000  0.50000000  0.50000000
   0.75000000  0.25000000  0.75000000
   0.50000000  0.00000000  0.50000000
   0.25000000  0.75000000  0.75000000
   0.50000000  0.50000000  0.00000000
   0.25000000  0.25000000  0.25000000
   0.00000000  0.33673444  0.00000000
   0.00000000  0.66326559  0.00000000
   0.75000000  0.08673443  0.25000000
   0.75000000  0.41326556  0.25000000
   0.00000000  0.83673441  0.50000000
   0.00000000  0.16326557  0.50000000
   0.75000000  0.58673441  0.75000000
   0.75000000  0.91326559  0.75000000
   0.50000000  0.33673444  0.50000000
   0.50000000  0.66326559  0.50000000
   0.25000000  0.08673443  0.75000000
   0.25000000  0.41326556  0.75000000
   0.50000000  0.83673441  0.00000000
   0.50000000  0.16326557  0.00000000
   0.25000000  0.58673441  0.25000000
   0.25000000  0.91326559  0.25000000
Direct configuration=     2
  -0.00000000  0.00022757 -0.00000000
   0.75000000  0.74977243  0.25000000
  -0.00000000  0.50022757  0.50000000
   0.75000000  0.24977243  0.75000000
   0.50000000  0.00022757  0.50000000
   0.25000000  0.74977243  0.75000000
   0.50000000  0.50022757 -0.00000000
   0.25000000  0.24977243  0.25000000
   0.00000000  0.33681072 -0.00000000
  -0.00000000  0.66337784 -0.00000000
   0.75000000  0.08662218  0.25000000
   0.75000000  0.41318928  0.25000000
   0.00000000  0.83681069  0.50000000
  -0.00000000  0.16337782  0.50000000
   0.75000000  0.58662216  0.75000000
   0.75000000  0.91318931  0.75000000
   0.50000000  0.33681072  0.50000000
   0.50000000  0.66337784  0.50000000
   0.25000000  0.08662218  0.75000000
   0.25000000  0.41318928  0.75000000
   0.50000000  0.83681069  0.00000000
   0.50000000  0.16337782  0.00000000
   0.25000000  0.58662216  0.25000000
   0.25000000  0.91318931  0.25000000
Direct configuration=     3
  -0.00000000  0.00091027 -0.00000000
   0.75000000  0.74908973  0.25000000
  -0.00000000  0.50091027  0.50000000
   0.75000000  0.24908973  0.75000000
   0.50000000  0.00091027  0.50000000
   0.25000000  0.74908973  0.75000000
   0.50000000  0.50091027 -0.00000000
   0.25000000  0.24908973  0.25000000
   0.00000000  0.33703956 -0.00000000
  -0.00000000  0.66371459 -0.00000000
   0.75000000  0.08628543  0.25000000
   0.75000000  0.41296044  0.25000000
   0.00000000  0.83703953  0.50000000
  -0.00000000  0.16371457  0.50000000
   0.75000000  0.58628541  0.75000000
   0.75000000  0.91296047  0.75000000
   0.50000000  0.33703956  0.50000000
   0.50000000  0.66371459  0.50000000
   0.25000000  0.08628543  0.75000000
   0.25000000  0.41296044  0.75000000
   0.50000000  0.83703953  0.00000000
   0.50000000  0.16371457  0.00000000
   0.25000000  0.58628541  0.25000000
   0.25000000  0.91296047  0.25000000
Direct configuration=     4
  -0.00000000  0.00111075 -0.00000000
   0.75000000  0.74888925  0.25000000
  -0.00000000  0.50111075  0.50000000
   0.75000000  0.24888925  0.75000000
   0.50000000  0.00111075  0.50000000
   0.25000000  0.74888925  0.75000000
   0.50000000  0.50111075 -0.00000000
   0.25000000  0.24888925  0.25000000
   0.00000000  0.33710676 -0.00000000
  -0.00000000  0.66381348 -0.00000000
   0.75000000  0.08618654  0.25000000
   0.75000000  0.41289324  0.25000000
   0.00000000  0.83710673  0.50000000
  -0.00000000  0.16381346  0.50000000
   0.75000000  0.58618652  0.75000000
   0.75000000  0.91289327  0.75000000
   0.50000000  0.33710676  0.50000000
   0.50000000  0.66381348  0.50000000
   0.25000000  0.08618654  0.75000000
   0.25000000  0.41289324  0.75000000
   0.50000000  0.83710673  0.00000000
   0.50000000  0.16381346  0.00000000
   0.25000000  0.58618652  0.25000000
   0.25000000  0.91289327  0.25000000
Direct configuration=     5
   0.00000000  0.00108539 -0.00000000
   0.75000000  0.74891461  0.25000000
   0.00000000  0.50108539  0.50000000
   0.75000000  0.24891461  0.75000000
   0.50000000  0.00108539  0.50000000
   0.25000000  0.74891461  0.75000000
   0.50000000  0.50108539 -0.00000000
   0.25000000  0.24891461  0.25000000
   0.00000000  0.33726166 -0.00000000
  -0.00000000  0.66398484 -0.00000000
   0.75000000  0.08601517  0.25000000
   0.75000000  0.41273834  0.25000000
   0.00000000  0.83726163  0.50000000
  -0.00000000  0.16398483  0.50000000
   0.75000000  0.58601516  0.75000000
   0.75000000  0.91273837  0.75000000
   0.50000000  0.33726166  0.50000000
   0.50000000  0.66398484  0.50000000
   0.25000000  0.08601517  0.75000000
   0.25000000  0.41273834  0.75000000
   0.50000000  0.83726163  0.00000000
   0.50000000  0.16398483  0.00000000
   0.25000000  0.58601516  0.25000000
   0.25000000  0.91273837  0.25000000
Direct configuration=     6
   0.00000000  0.00103461 -0.00000000
   0.75000000  0.74896539  0.25000000
   0.00000000  0.50103461  0.50000000
   0.75000000  0.24896539  0.75000000
   0.50000000  0.00103461  0.50000000
   0.25000000  0.74896539  0.75000000
   0.50000000  0.50103461 -0.00000000
   0.25000000  0.24896539  0.25000000
   0.00000000  0.33757181 -0.00000000
  -0.00000000  0.66432796 -0.00000000
   0.75000000  0.08567205  0.25000000
   0.75000000  0.41242819  0.25000000
   0.00000000  0.83757178  0.50000000
  -0.00000000  0.16432795  0.50000000
   0.75000000  0.58567204  0.75000000
   0.75000000  0.91242822  0.75000000
   0.50000000  0.33757181  0.50000000
   0.50000000  0.66432796  0.50000000
   0.25000000  0.08567205  0.75000000
   0.25000000  0.41242819  0.75000000
   0.50000000  0.83757178  0.00000000
   0.50000000  0.16432795 -0.00000000
   0.25000000  0.58567204  0.25000000
   0.25000000  0.91242822  0.25000000
Direct configuration=     7
   0.00000000  0.00103537 -0.00000000
   0.75000000  0.74896463  0.25000000
   0.00000000  0.50103537  0.50000000
   0.75000000  0.24896463  0.75000000
   0.50000000  0.00103537  0.50000000
   0.25000000  0.74896463  0.75000000
   0.50000000  0.50103537 -0.00000000
   0.25000000  0.24896463  0.25000000
   0.00000000  0.33756712 -0.00000000
  -0.00000000  0.66432278 -0.00000000
   0.75000000  0.08567724  0.25000000
   0.75000000  0.41243288  0.25000000
   0.00000000  0.83756709  0.50000000
  -0.00000000  0.16432276  0.50000000
   0.75000000  0.58567722  0.75000000
   0.75000000  0.91243291  0.75000000
   0.50000000  0.33756712  0.50000000
   0.50000000  0.66432278  0.50000000
   0.25000000  0.08567724  0.75000000
   0.25000000  0.41243288  0.75000000
   0.50000000  0.83756709  0.00000000
   0.50000000  0.16432276 -0.00000000
   0.25000000  0.58567722  0.25000000
   0.25000000  0.91243291  0.25000000
Direct configuration=     8
   0.00000000  0.00103514 -0.00000000
   0.75000000  0.74896486  0.25000000
   0.00000000  0.50103514  0.50000000
   0.75000000  0.24896486  0.75000000
   0.50000000  0.00103514  0.50000000
   0.25000000  0.74896486  0.75000000
   0.50000000  0.50103514 -0.00000000
   0.25000000  0.24896486  0.25000000
   0.00000000  0.33756855 -0.00000000
  -0.00000000  0.66432436 -0.00000000
   0.75000000  0.08567566  0.25000000
   0.75000000  0.41243145  0.25000000
   0.00000000  0.83756852  0.50000000
  -0.00000000  0.16432434  0.50000000
   0.75000000  0.58567564  0.75000000
   0.75000000  0.91243148  0.75000000
   0.50000000  0.33756855  0.50000000
   0.50000000  0.66432436  0.50000000
   0.25000000  0.08567566  0.75000000
   0.25000000  0.41243145  0.75000000
   0.50000000  0.83756852  0.00000000
   0.50000000  0.16432434 -0.00000000
   0.25000000  0.58567564  0.25000000
   0.25000000  0.91243148  0.25000000
Direct configuration=     9
   0.00000000  0.00103525 -0.00000000
   0.75000000  0.74896475  0.25000000
   0.00000000  0.50103525  0.50000000
   0.75000000  0.24896475  0.75000000
   0.50000000  0.00103525  0.50000000
   0.25000000  0.74896475  0.75000000
   0.50000000  0.50103525 -0.00000000
   0.25000000  0.24896475  0.25000000
   0.00000000  0.33756786 -0.00000000
  -0.00000000  0.66432360 -0.00000000
   0.75000000  0.08567642  0.25000000
   0.75000000  0.41243214  0.25000000
   0.00000000  0.83756783  0.50000000
  -0.00000000  0.16432358  0.50000000
   0.75000000  0.58567640  0.75000000
   0.75000000  0.91243217  0.75000000
   0.50000000  0.33756786  0.50000000
   0.50000000  0.66432360  0.50000000
   0.25000000  0.08567642  0.75000000
   0.25000000  0.41243214  0.75000000
   0.50000000  0.83756783  0.00000000
   0.50000000  0.16432358 -0.00000000
   0.25000000  0.58567640  0.25000000
   0.25000000  0.91243217  0.25000000
Direct configuration=    10
   0.00000000  0.00103523 -0.00000000
   0.75000000  0.74896477  0.25000000
   0.00000000  0.50103523  0.50000000
   0.75000000  0.24896477  0.75000000
   0.50000000  0.00103523  0.50000000
   0.25000000  0.74896477  0.75000000
   0.50000000  0.50103523 -0.00000000
   0.25000000  0.24896477  0.25000000
   0.00000000  0.33756799 -0.00000000
  -0.00000000  0.66432374 -0.00000000
   0.75000000  0.08567628  0.25000000
   0.75000000  0.41243201  0.25000000
   0.00000000  0.83756796  0.50000000
  -0.00000000  0.16432372  0.50000000
   0.75000000  0.58567626  0.75000000
   0.75000000  0.91243204  0.75000000
   0.50000000  0.33756799  0.50000000
   0.50000000  0.66432374  0.50000000
   0.25000000  0.08567628  0.75000000
   0.25000000  0.41243201  0.75000000
   0.50000000  0.83756796  0.00000000
   0.50000000  0.16432372 -0.00000000
   0.25000000  0.58567626  0.25000000
   0.25000000  0.91243204  0.25000000
Direct configuration=    11
   0.00000000  0.00103524 -0.00000000
   0.75000000  0.74896476  0.25000000
   0.00000000  0.50103524  0.50000000
   0.75000000  0.24896476  0.75000000
   0.50000000  0.00103524  0.50000000
   0.25000000  0.74896476  0.75000000
   0.50000000  0.50103524 -0.00000000
   0.25000000  0.24896476  0.25000000
   0.00000000  0.33756791 -0.00000000
  -0.00000000  0.66432365 -0.00000000
   0.75000000  0.08567636  0.25000000
   0.75000000  0.41243209  0.25000000
   0.00000000  0.83756788  0.50000000
  -0.00000000  0.16432364  0.50000000
   0.75000000  0.58567635  0.75000000
   0.75000000  0.91243212  0.75000000
   0.50000000  0.33756791  0.50000000
   0.50000000  0.66432365  0.50000000
   0.25000000  0.08567636  0.75000000
   0.25000000  0.41243209  0.75000000
   0.50000000  0.83756788  0.00000000
   0.50000000  0.16432364 -0.00000000
   0.25000000  0.58567635  0.25000000
   0.25000000  0.91243212  0.25000000
Direct configuration=    12
   0.00000000  0.00103786 -0.00000000
   0.75000000  0.74896214  0.25000000
   0.00000000  0.50103786  0.50000000
   0.75000000  0.24896214  0.75000000
   0.50000000  0.00103786  0.50000000
   0.25000000  0.74896214  0.75000000
   0.50000000  0.50103786 -0.00000000
   0.25000000  0.24896214  0.25000000
   0.00000000  0.33757546 -0.00000000
  -0.00000000  0.66431892 -0.00000000
   0.75000000  0.08568109  0.25000000
   0.75000000  0.41242454  0.25000000
   0.00000000  0.83757543  0.50000000
   0.00000000  0.16431891  0.50000000
   0.75000000  0.58568108  0.75000000
   0.75000000  0.91242457  0.75000000
   0.50000000  0.33757546  0.50000000
   0.50000000  0.66431892  0.50000000
   0.25000000  0.08568109  0.75000000
   0.25000000  0.41242454  0.75000000
   0.50000000  0.83757543  0.00000000
   0.50000000  0.16431891 -0.00000000
   0.25000000  0.58568108  0.25000000
   0.25000000  0.91242457  0.25000000
Direct configuration=    13
   0.00000000  0.00104011 -0.00000000
   0.75000000  0.74895989  0.25000000
  -0.00000000  0.50104011  0.50000000
   0.75000000  0.24895989  0.75000000
   0.50000000  0.00104011  0.50000000
   0.25000000  0.74895989  0.75000000
   0.50000000  0.50104011 -0.00000000
   0.25000000  0.24895989  0.25000000
   0.00000000  0.33758192 -0.00000000
  -0.00000000  0.66431487 -0.00000000
   0.75000000  0.08568515  0.25000000
   0.75000000  0.41241808  0.25000000
   0.00000000  0.83758189  0.50000000
   0.00000000  0.16431485  0.50000000
   0.75000000  0.58568513  0.75000000
   0.75000000  0.91241811  0.75000000
   0.50000000  0.33758192  0.50000000
   0.50000000  0.66431487  0.50000000
   0.25000000  0.08568515  0.75000000
   0.25000000  0.41241808  0.75000000
   0.50000000  0.83758189  0.00000000
   0.50000000  0.16431485 -0.00000000
   0.25000000  0.58568513  0.25000000
   0.25000000  0.91241811  0.25000000
Direct configuration=    14
  -0.00000000  0.00104460 -0.00000000
   0.75000000  0.74895540  0.25000000
  -0.00000000  0.50104460  0.50000000
   0.75000000  0.24895540  0.75000000
   0.50000000  0.00104460  0.50000000
   0.25000000  0.74895540  0.75000000
   0.50000000  0.50104460 -0.00000000
   0.25000000  0.24895540  0.25000000
   0.00000000  0.33759484 -0.00000000
  -0.00000000  0.66430676 -0.00000000
   0.75000000  0.08569326  0.25000000
   0.75000000  0.41240516  0.25000000
   0.00000000  0.83759481  0.50000000
   0.00000000  0.16430674  0.50000000
   0.75000000  0.58569324  0.75000000
   0.75000000  0.91240519  0.75000000
   0.50000000  0.33759484  0.50000000
   0.50000000  0.66430676  0.50000000
   0.25000000  0.08569326  0.75000000
   0.25000000  0.41240516  0.75000000
   0.50000000  0.83759481  0.00000000
   0.50000000  0.16430674 -0.00000000
   0.25000000  0.58569324  0.25000000
   0.25000000  0.91240519  0.25000000
Direct configuration=    15
   0.00000000  0.00104105 -0.00000000
   0.75000000  0.74895895  0.25000000
  -0.00000000  0.50104105  0.50000000
   0.75000000  0.24895895  0.75000000
   0.50000000  0.00104105  0.50000000
   0.25000000  0.74895895  0.75000000
   0.50000000  0.50104105 -0.00000000
   0.25000000  0.24895895  0.25000000
   0.00000000  0.33758463 -0.00000000
  -0.00000000  0.66431316 -0.00000000
   0.75000000  0.08568685  0.25000000
   0.75000000  0.41241537  0.25000000
   0.00000000  0.83758460  0.50000000
   0.00000000  0.16431315  0.50000000
   0.75000000  0.58568684  0.75000000
   0.75000000  0.91241540  0.75000000
   0.50000000  0.33758463  0.50000000
   0.50000000  0.66431316  0.50000000
   0.25000000  0.08568685  0.75000000
   0.25000000  0.41241537  0.75000000
   0.50000000  0.83758460  0.00000000
   0.50000000  0.16431315 -0.00000000
   0.25000000  0.58568684  0.25000000
   0.25000000  0.91241540  0.25000000
