       N       E                     dE             d eps       ncg     rms          rms(c)
DAV:   1     0.348012915881E+02    0.34801E+02   -0.38768E+03 16464   0.660E+02
DAV:   2    -0.125635762298E+02   -0.47365E+02   -0.44815E+02 20812   0.105E+02
DAV:   3    -0.152882193770E+02   -0.27246E+01   -0.26236E+01 22080   0.276E+01
DAV:   4    -0.153320405608E+02   -0.43821E-01   -0.43611E-01 20008   0.348E+00
DAV:   5    -0.153328337878E+02   -0.79323E-03   -0.79257E-03 22116   0.403E-01    0.146E+00
RMM:   6    -0.152976743847E+02    0.35159E-01   -0.93015E-03 16464   0.723E-01    0.908E-01
RMM:   7    -0.152756044884E+02    0.22070E-01   -0.28650E-02 16464   0.127E+00    0.619E-02
RMM:   8    -0.152758217672E+02   -0.21728E-03   -0.76417E-04 16612   0.221E-01    0.161E-02
RMM:   9    -0.152758354065E+02   -0.13639E-04   -0.41988E-05 17026   0.429E-02    0.573E-03
RMM:  10    -0.152758465104E+02   -0.11104E-04   -0.88367E-06 15546   0.182E-02    0.141E-03
RMM:  11    -0.152758472753E+02   -0.76484E-06   -0.24029E-07  9693   0.327E-03
   1 F= -.15275847E+02 E0= -.15273932E+02  d E =-.152758E+02
       N       E                     dE             d eps       ncg     rms          rms(c)
DAV:   1    -0.152759862210E+02   -0.13971E-03   -0.65246E-04 20360   0.143E-01    0.483E-03
RMM:   2    -0.152759903858E+02   -0.41648E-05   -0.41764E-05 16233   0.342E-02    0.182E-03
RMM:   3    -0.152759904897E+02   -0.10393E-06   -0.13219E-06 10009   0.581E-03    0.101E-03
RMM:   4    -0.152759907615E+02   -0.27178E-06   -0.17869E-07  7044   0.279E-03
   2 F= -.15275991E+02 E0= -.15274078E+02  d E =-.143486E-03
       N       E                     dE             d eps       ncg     rms          rms(c)
DAV:   1    -0.152763041300E+02   -0.31364E-03   -0.59299E-03 18308   0.431E-01    0.143E-02
RMM:   2    -0.152763369245E+02   -0.32794E-04   -0.38867E-04 16470   0.105E-01    0.965E-04
RMM:   3    -0.152763390071E+02   -0.20826E-05   -0.14013E-05 13981   0.166E-02    0.791E-04
RMM:   4    -0.152763390455E+02   -0.38428E-07   -0.68669E-07  9843   0.454E-03
   3 F= -.15276339E+02 E0= -.15274433E+02  d E =-.491770E-03
       N       E                     dE             d eps       ncg     rms          rms(c)
DAV:   1    -0.152765383648E+02   -0.19936E-03   -0.23707E-02 18128   0.862E-01    0.285E-02
RMM:   2    -0.152766721886E+02   -0.13382E-03   -0.15534E-03 16480   0.211E-01    0.135E-03
RMM:   3    -0.152766776865E+02   -0.54979E-05   -0.54076E-05 16542   0.325E-02    0.103E-03
RMM:   4    -0.152766779861E+02   -0.29958E-06   -0.21964E-06 10940   0.678E-03
   4 F= -.15276678E+02 E0= -.15274779E+02  d E =-.830711E-03
       N       E                     dE             d eps       ncg     rms          rms(c)
DAV:   1    -0.152768625930E+02   -0.18491E-03   -0.27873E-03 17916   0.301E-01    0.737E-03
RMM:   2    -0.152768747466E+02   -0.12154E-04   -0.13388E-04 16498   0.641E-02    0.851E-03
RMM:   3    -0.152768747758E+02   -0.29175E-07   -0.56546E-06 13048   0.115E-02    0.699E-03
RMM:   4    -0.152768724976E+02    0.22782E-05   -0.59731E-06 15947   0.113E-02    0.130E-03
RMM:   5    -0.152768729848E+02   -0.48725E-06   -0.17683E-06 10259   0.595E-03
   5 F= -.15276873E+02 E0= -.15274980E+02  d E =-.194999E-03
       N       E                     dE             d eps       ncg     rms          rms(c)
DAV:   1    -0.152772357545E+02   -0.36326E-03   -0.25041E-02 17084   0.904E-01    0.237E-02
RMM:   2    -0.152773263165E+02   -0.90562E-04   -0.10401E-03 16494   0.183E-01    0.127E-02
RMM:   3    -0.152773279968E+02   -0.16803E-05   -0.48561E-05 17077   0.306E-02    0.902E-03
RMM:   4    -0.152773280935E+02   -0.96665E-07   -0.16002E-06 10931   0.628E-03
   6 F= -.15277328E+02 E0= -.15275444E+02  d E =-.650107E-03
       N       E                     dE             d eps       ncg     rms          rms(c)
DAV:   1    -0.152772679691E+02    0.60028E-04   -0.10035E-01 17196   0.181E+00    0.476E-02
RMM:   2    -0.152776219854E+02   -0.35402E-03   -0.42914E-03 16492   0.370E-01    0.209E-02
RMM:   3    -0.152776458518E+02   -0.23866E-04   -0.18571E-04 17372   0.602E-02    0.207E-02
RMM:   4    -0.152776422429E+02    0.36089E-05   -0.96105E-06 13720   0.150E-02    0.184E-02
RMM:   5    -0.152776376148E+02    0.46281E-05   -0.41282E-05 16464   0.290E-02    0.152E-02
RMM:   6    -0.152776422398E+02   -0.46250E-05   -0.62431E-06 15590   0.116E-02    0.178E-02
RMM:   7    -0.152776423948E+02   -0.15504E-06   -0.25852E-07  9850   0.312E-03
   7 F= -.15277642E+02 E0= -.15275735E+02  d E =-.964409E-03
       N       E                     dE             d eps       ncg     rms          rms(c)
DAV:   1    -0.152776344417E+02    0.77980E-05   -0.44734E-03 17348   0.382E-01    0.251E-02
RMM:   2    -0.152776357625E+02   -0.13208E-05   -0.20696E-04 16507   0.805E-02    0.143E-02
RMM:   3    -0.152776355900E+02    0.17254E-06   -0.85417E-06 13656   0.132E-02    0.128E-02
RMM:   4    -0.152776346846E+02    0.90533E-06   -0.56203E-07  9661   0.436E-03
   8 F= -.15277635E+02 E0= -.15275734E+02  d E =-.956699E-03
       N       E                     dE             d eps       ncg     rms          rms(c)
DAV:   1    -0.152776340892E+02    0.15007E-05   -0.42719E-05 19268   0.376E-02    0.100E-02
RMM:   2    -0.152776343949E+02   -0.30566E-06   -0.12623E-06  8965   0.683E-03    0.103E-02
RMM:   3    -0.152776318406E+02    0.25543E-05   -0.54682E-07  8541   0.372E-03    0.772E-03
RMM:   4    -0.152776292449E+02    0.25956E-05   -0.21138E-06  9705   0.725E-03    0.311E-03
RMM:   5    -0.152776288625E+02    0.38246E-06   -0.56125E-07  8425   0.424E-03
   9 F= -.15277629E+02 E0= -.15275728E+02  d E =-.950876E-03
       N       E                     dE             d eps       ncg     rms          rms(c)
DAV:   1    -0.152776279987E+02    0.12462E-05   -0.88539E-04 17132   0.170E-01    0.383E-03
RMM:   2    -0.152776310764E+02   -0.30777E-05   -0.37617E-05 16395   0.346E-02    0.563E-04
RMM:   3    -0.152776312083E+02   -0.13189E-06   -0.12181E-06 10173   0.535E-03    0.719E-04
RMM:   4    -0.152776312155E+02   -0.71712E-08   -0.14545E-07  6037   0.220E-03
  10 F= -.15277631E+02 E0= -.15275727E+02  d E =-.953229E-03
       N       E                     dE             d eps       ncg     rms          rms(c)
DAV:   1    -0.152776293715E+02    0.18368E-05   -0.23259E-04 17036   0.873E-02    0.240E-03
RMM:   2    -0.152776301814E+02   -0.80992E-06   -0.10218E-05 14712   0.181E-02    0.626E-05
RMM:   3    -0.152776302056E+02   -0.24197E-07   -0.31047E-07  7116   0.325E-03    0.829E-05
RMM:   4    -0.152776302119E+02   -0.63715E-08   -0.42847E-08  3237   0.161E-03
  11 F= -.15277630E+02 E0= -.15275728E+02  d E =-.952226E-03
       N       E                     dE             d eps       ncg     rms          rms(c)
DAV:   1    -0.152776410320E+02   -0.10826E-04   -0.28747E-03 17536   0.303E-01    0.973E-03
RMM:   2    -0.152776562947E+02   -0.15263E-04   -0.16985E-04 16471   0.707E-02    0.334E-03
RMM:   3    -0.152776566124E+02   -0.31765E-06   -0.81718E-06 13526   0.130E-02    0.712E-04
RMM:   4    -0.152776567174E+02   -0.10501E-06   -0.52712E-07  9926   0.417E-03
  12 F= -.15277657E+02 E0= -.15275744E+02  d E =-.265055E-04
       N       E                     dE             d eps       ncg     rms          rms(c)
DAV:   1    -0.152776564929E+02    0.11950E-06   -0.97562E-06 20792   0.178E-02    0.132E-03
RMM:   2    -0.152776565056E+02   -0.12693E-07   -0.44700E-07  7968   0.394E-03    0.912E-04
RMM:   3    -0.152776565199E+02   -0.14352E-07   -0.32084E-07  8351   0.295E-03    0.685E-04
RMM:   4    -0.152776564896E+02    0.30372E-07   -0.48277E-10   574   0.112E-03
  13 F= -.15277656E+02 E0= -.15275745E+02  d E =-.262776E-04
       N       E                     dE             d eps       ncg     rms          rms(c)
DAV:   1    -0.152776565718E+02   -0.51818E-07   -0.15633E-06 11080   0.741E-03    0.350E-04
RMM:   2    -0.152776565770E+02   -0.52757E-08   -0.21149E-07  6867   0.277E-03    0.128E-04
RMM:   3    -0.152776565742E+02    0.28182E-08   -0.26344E-10   851   0.111E-03    0.101E-04
RMM:   4    -0.152776565745E+02   -0.30823E-09   -0.32607E-15   412   0.109E-03
  14 F= -.15277657E+02 E0= -.15275745E+02  d E =-.263626E-04
