Sn                                      
           1
     5.944297    0.000000    0.000000
     0.000000    6.003740    0.059443
     0.000000    0.032120    3.276290
   Sn
   4
Direct configuration=     1
   0.00000000  0.00000000  0.50000000
   0.50000000  0.00000000  0.75000000
   0.50000000  0.50000000  0.00000000
   0.00000000  0.50000000  0.25000000
Direct configuration=     2
  -0.00000000 -0.00012002  0.49977880
   0.50000000  0.00012002  0.75022120
   0.50000000  0.49987998 -0.00022120
   0.00000000  0.50012002  0.25022120
Direct configuration=     3
  -0.00000000 -0.00048009  0.49911521
   0.50000000  0.00048009  0.75088479
   0.50000000  0.49951991 -0.00088479
   0.00000000  0.50048009  0.25088479
Direct configuration=     4
  -0.00000000 -0.00120023  0.49778802
   0.50000000  0.00120023  0.75221198
   0.50000000  0.49879977 -0.00221198
   0.00000000  0.50120023  0.25221198
Direct configuration=     5
  -0.00000000 -0.00112306  0.49708253
   0.50000000  0.00112306  0.75291747
   0.50000000  0.49887694 -0.00291747
   0.00000000  0.50112306  0.25291747
Direct configuration=     6
  -0.00000000 -0.00089154  0.49496604
   0.50000000  0.00089154  0.75503396
   0.50000000  0.49910846 -0.00503396
   0.00000000  0.50089154  0.25503396
Direct configuration=     7
  -0.00000000 -0.00042850  0.49073308
   0.50000000  0.00042850  0.75926692
   0.50000000  0.49957150 -0.00926692
   0.00000000  0.50042850  0.25926692
Direct configuration=     8
  -0.00000000 -0.00052595  0.49162391
   0.50000000  0.00052595  0.75837609
   0.50000000  0.49947405 -0.00837609
   0.00000000  0.50052595  0.25837609
Direct configuration=     9
  -0.00000000 -0.00051598  0.49153280
   0.50000000  0.00051598  0.75846720
   0.50000000  0.49948402 -0.00846720
   0.00000000  0.50051598  0.25846720
Direct configuration=    10
  -0.00000000 -0.00047224  0.49113294
   0.50000000  0.00047224  0.75886706
   0.50000000  0.49952776 -0.00886706
   0.00000000  0.50047224  0.25886706
Direct configuration=    11
  -0.00000000 -0.00049445  0.49133591
   0.50000000  0.00049445  0.75866409
   0.50000000  0.49950555 -0.00866409
   0.00000000  0.50049445  0.25866409
Direct configuration=    12
  -0.00000000 -0.00071247  0.49079525
   0.50000000  0.00071247  0.75920475
   0.50000000  0.49928753 -0.00920475
   0.00000000  0.50071247  0.25920475
Direct configuration=    13
  -0.00000000 -0.00069939  0.49082768
   0.50000000  0.00069939  0.75917232
   0.50000000  0.49930061 -0.00917232
   0.00000000  0.50069939  0.25917232
Direct configuration=    14
  -0.00000000 -0.00070446  0.49081510
   0.50000000  0.00070446  0.75918490
   0.50000000  0.49929554 -0.00918490
   0.00000000  0.50070446  0.25918490
