       N       E                     dE             d eps       ncg     rms          rms(c)
DAV:   1     0.879001286574E+03    0.87900E+03   -0.84050E+04 13776   0.175E+03
DAV:   2    -0.196943635815E+03   -0.10759E+04   -0.10508E+04 16904   0.352E+02
DAV:   3    -0.250559764159E+03   -0.53616E+02   -0.53419E+02 16224   0.848E+01
DAV:   4    -0.251168098535E+03   -0.60833E+00   -0.60681E+00 16176   0.991E+00
DAV:   5    -0.251177873480E+03   -0.97749E-02   -0.97653E-02 16056   0.122E+00    0.299E+01
RMM:   6    -0.226380492227E+03    0.24797E+02   -0.11179E+02 13728   0.318E+01    0.796E+00
RMM:   7    -0.226296643416E+03    0.83849E-01   -0.24771E+00 13728   0.408E+00    0.542E+00
RMM:   8    -0.226331580680E+03   -0.34937E-01   -0.57381E-01 13728   0.381E+00    0.106E+00
RMM:   9    -0.226310094135E+03    0.21487E-01   -0.20615E-01 13728   0.137E+00    0.248E-01
RMM:  10    -0.226311483767E+03   -0.13896E-02   -0.62486E-03 13730   0.261E-01    0.270E-01
RMM:  11    -0.226309701062E+03    0.17827E-02   -0.92655E-03 13728   0.298E-01    0.208E-02
RMM:  12    -0.226309704766E+03   -0.37039E-05   -0.12418E-04 13728   0.416E-02    0.140E-02
RMM:  13    -0.226309701275E+03    0.34904E-05   -0.16052E-05 13467   0.125E-02    0.261E-03
RMM:  14    -0.226309702334E+03   -0.10588E-05   -0.93995E-06 12401   0.920E-03    0.547E-03
RMM:  15    -0.226309701371E+03    0.96355E-06   -0.23615E-06  8112   0.518E-03
   1 F= -.22630970E+03 E0= -.22630970E+03  d E =-.226310E+03
       N       E                     dE             d eps       ncg     rms          rms(c)
DAV:   1    -0.226328185534E+03   -0.18483E-01   -0.14491E+00 15816   0.472E+00    0.223E-01
RMM:   2    -0.226336394383E+03   -0.82088E-02   -0.74476E-02 13728   0.953E-01    0.446E-01
RMM:   3    -0.226331300277E+03    0.50941E-02   -0.22955E-02 13728   0.478E-01    0.860E-02
RMM:   4    -0.226331665613E+03   -0.36534E-03   -0.42282E-03 13728   0.206E-01    0.160E-01
RMM:   5    -0.226331148040E+03    0.51757E-03   -0.15914E-03 13728   0.126E-01    0.396E-02
RMM:   6    -0.226331126518E+03    0.21522E-04   -0.35518E-04 13728   0.557E-02    0.106E-02
RMM:   7    -0.226331125095E+03    0.14224E-05   -0.11655E-05 12804   0.120E-02    0.138E-03
RMM:   8    -0.226331125745E+03   -0.64964E-06   -0.30464E-06  9407   0.572E-03
   2 F= -.22633113E+03 E0= -.22633113E+03  d E =-.214244E-01
       N       E                     dE             d eps       ncg     rms          rms(c)
DAV:   1    -0.226331890606E+03   -0.76551E-03   -0.10049E-01 15616   0.124E+00    0.588E-02
RMM:   2    -0.226332096370E+03   -0.20576E-03   -0.31277E-03 13728   0.204E-01    0.464E-03
RMM:   3    -0.226332085221E+03    0.11149E-04   -0.33247E-05 13868   0.190E-02    0.334E-03
RMM:   4    -0.226332085082E+03    0.13893E-06   -0.15975E-06  8299   0.441E-03
   3 F= -.22633209E+03 E0= -.22633209E+03  d E =-.223837E-01
       N       E                     dE             d eps       ncg     rms          rms(c)
DAV:   1    -0.226334212584E+03   -0.21274E-02   -0.53375E-01 14896   0.299E+00    0.793E-02
RMM:   2    -0.226335081778E+03   -0.86919E-03   -0.11117E-02 13728   0.398E-01    0.911E-02
RMM:   3    -0.226335953681E+03   -0.87190E-03   -0.29831E-03 13728   0.169E-01    0.215E-01
RMM:   4    -0.226334917891E+03    0.10358E-02   -0.64182E-03 13728   0.245E-01    0.229E-02
RMM:   5    -0.226334905170E+03    0.12722E-04   -0.32469E-05 13728   0.207E-02    0.135E-02
RMM:   6    -0.226334900835E+03    0.43349E-05   -0.14511E-05 13224   0.117E-02    0.358E-03
RMM:   7    -0.226334901138E+03   -0.30335E-06   -0.77663E-07  8112   0.291E-03
   4 F= -.22633490E+03 E0= -.22633490E+03  d E =-.281606E-02
       N       E                     dE             d eps       ncg     rms          rms(c)
DAV:   1    -0.226335063791E+03   -0.16296E-03   -0.11075E-01 15288   0.136E+00    0.361E-02
RMM:   2    -0.226335212268E+03   -0.14848E-03   -0.20837E-03 13728   0.174E-01    0.229E-03
RMM:   3    -0.226335206810E+03    0.54576E-05   -0.27755E-05 13862   0.174E-02    0.155E-03
RMM:   4    -0.226335206959E+03   -0.14912E-06   -0.93392E-07  8203   0.341E-03
   5 F= -.22633521E+03 E0= -.22633521E+03  d E =-.312188E-02
       N       E                     dE             d eps       ncg     rms          rms(c)
DAV:   1    -0.226335285332E+03   -0.78522E-04   -0.27418E-02 14976   0.673E-01    0.211E-02
RMM:   2    -0.226335370069E+03   -0.84737E-04   -0.81023E-04 13728   0.105E-01    0.409E-02
RMM:   3    -0.226335505252E+03   -0.13518E-03   -0.16098E-03 13728   0.122E-01    0.819E-02
RMM:   4    -0.226335335904E+03    0.16935E-03   -0.64791E-04 13728   0.787E-02    0.667E-03
RMM:   5    -0.226335337281E+03   -0.13767E-05   -0.39290E-05 13728   0.180E-02    0.851E-03
RMM:   6    -0.226335335864E+03    0.14171E-05   -0.81316E-06 12801   0.909E-03    0.538E-04
RMM:   7    -0.226335335889E+03   -0.24903E-07   -0.12099E-07  7526   0.122E-03
   6 F= -.22633534E+03 E0= -.22633534E+03  d E =-.128930E-03
       N       E                     dE             d eps       ncg     rms          rms(c)
DAV:   1    -0.226335333539E+03    0.23252E-05   -0.19348E-02 14768   0.565E-01    0.177E-02
RMM:   2    -0.226335370292E+03   -0.36753E-04   -0.41648E-04 13728   0.773E-02    0.180E-03
RMM:   3    -0.226335369355E+03    0.93726E-06   -0.67615E-06 10882   0.813E-03    0.136E-03
RMM:   4    -0.226335369301E+03    0.53930E-07   -0.44279E-07  8094   0.227E-03
   7 F= -.22633537E+03 E0= -.22633537E+03  d E =-.162342E-03
       N       E                     dE             d eps       ncg     rms          rms(c)
DAV:   1    -0.226335388064E+03   -0.18709E-04   -0.13106E-02 14696   0.461E-01    0.150E-02
RMM:   2    -0.226335426513E+03   -0.38449E-04   -0.36130E-04 13728   0.690E-02    0.236E-02
RMM:   3    -0.226335415018E+03    0.11494E-04   -0.34236E-05 13728   0.189E-02    0.971E-03
RMM:   4    -0.226335413805E+03    0.12129E-05   -0.13752E-05 13409   0.112E-02    0.452E-03
RMM:   5    -0.226335413466E+03    0.33966E-06   -0.32196E-06  9464   0.569E-03
   8 F= -.22633541E+03 E0= -.22633541E+03  d E =-.441651E-04
       N       E                     dE             d eps       ncg     rms          rms(c)
DAV:   1    -0.226335412430E+03    0.13752E-05   -0.39020E-03 14944   0.252E-01    0.788E-03
RMM:   2    -0.226335419964E+03   -0.75341E-05   -0.81588E-05 13728   0.337E-02    0.908E-04
RMM:   3    -0.226335419858E+03    0.10612E-06   -0.11781E-06  8335   0.360E-03    0.517E-04
RMM:   4    -0.226335419884E+03   -0.25479E-07   -0.16938E-07  6392   0.138E-03
   9 F= -.22633542E+03 E0= -.22633542E+03  d E =-.505831E-04
       N       E                     dE             d eps       ncg     rms          rms(c)
DAV:   1    -0.226335419857E+03    0.16967E-08   -0.88388E-06 14240   0.121E-02    0.559E-04
RMM:   2    -0.226335419871E+03   -0.14550E-07   -0.18416E-07  7068   0.168E-03    0.199E-04
RMM:   3    -0.226335419869E+03    0.18103E-08   -0.15110E-09  1247   0.446E-04    0.154E-04
RMM:   4    -0.226335419869E+03    0.70753E-09   -0.91861E-10   907   0.559E-04
  10 F= -.22633542E+03 E0= -.22633542E+03  d E =-.505680E-04
       N       E                     dE             d eps       ncg     rms          rms(c)
DAV:   1    -0.226335419880E+03   -0.10166E-07   -0.33267E-06 11744   0.738E-03    0.373E-04
RMM:   2    -0.226335419890E+03   -0.10181E-07   -0.74038E-08  4985   0.121E-03    0.129E-04
RMM:   3    -0.226335419892E+03   -0.25630E-08   -0.27853E-09   720   0.529E-04    0.933E-05
RMM:   4    -0.226335419895E+03   -0.31059E-08   -0.22210E-09   583   0.523E-04
  11 F= -.22633542E+03 E0= -.22633542E+03  d E =-.505947E-04
       N       E                     dE             d eps       ncg     rms          rms(c)
DAV:   1    -0.226335421592E+03   -0.16994E-05   -0.36098E-04 14496   0.758E-02    0.306E-03
RMM:   2    -0.226335422609E+03   -0.10173E-05   -0.11368E-05 13518   0.121E-02    0.416E-03
RMM:   3    -0.226335422929E+03   -0.31962E-06   -0.35233E-06  9676   0.562E-03    0.550E-03
RMM:   4    -0.226335422700E+03    0.22815E-06   -0.79966E-06 11988   0.838E-03
  12 F= -.22633542E+03 E0= -.22633542E+03  d E =-.280505E-05
       N       E                     dE             d eps       ncg     rms          rms(c)
DAV:   1    -0.226335422356E+03    0.57273E-06   -0.78094E-05 14784   0.357E-02    0.184E-03
RMM:   2    -0.226335422556E+03   -0.19980E-06   -0.21871E-06  7900   0.572E-03    0.597E-04
RMM:   3    -0.226335422572E+03   -0.16799E-07   -0.10858E-07  6795   0.133E-03    0.234E-04
RMM:   4    -0.226335422578E+03   -0.59337E-08   -0.16093E-09  1505   0.539E-04
  13 F= -.22633542E+03 E0= -.22633542E+03  d E =-.268300E-05
       N       E                     dE             d eps       ncg     rms          rms(c)
DAV:   1    -0.226335422582E+03   -0.94320E-08   -0.91014E-07  8432   0.386E-03    0.289E-04
RMM:   2    -0.226335422575E+03    0.71701E-08   -0.37242E-08  5469   0.100E-03    0.174E-04
RMM:   3    -0.226335422577E+03   -0.20882E-08   -0.52186E-10   747   0.444E-04    0.141E-04
RMM:   4    -0.226335422582E+03   -0.50273E-08   -0.43612E-09  1019   0.484E-04
  14 F= -.22633542E+03 E0= -.22633542E+03  d E =-.268645E-05
       N       E                     dE             d eps       ncg     rms          rms(c)
DAV:   1    -0.226335422581E+03   -0.38238E-08   -0.39779E-07  8168   0.259E-03    0.164E-04
RMM:   2    -0.226335422582E+03   -0.14155E-08   -0.10327E-09  1098   0.663E-04    0.743E-05
RMM:   3    -0.226335422583E+03   -0.85154E-09   -0.12489E-09   538   0.679E-04    0.920E-05
RMM:   4    -0.226335422586E+03   -0.30251E-08   -0.75489E-10   398   0.669E-04
  15 F= -.22633542E+03 E0= -.22633542E+03  d E =-.269054E-05
       N       E                     dE             d eps       ncg     rms          rms(c)
DAV:   1    -0.226335422587E+03   -0.36104E-08   -0.11612E-07  7992   0.131E-03    0.142E-04
RMM:   2    -0.226335422586E+03    0.85862E-09    0.00000E+00   619   0.330E-04    0.683E-05
RMM:   3    -0.226335422584E+03    0.18489E-08    0.00000E+00   208   0.349E-04    0.476E-05
RMM:   4    -0.226335422583E+03    0.62025E-09    0.00000E+00   162   0.346E-04
  16 F= -.22633542E+03 E0= -.22633542E+03  d E =-.268779E-05
       N       E                     dE             d eps       ncg     rms          rms(c)
DAV:   1    -0.226335422582E+03    0.19317E-08   -0.29304E-08  7944   0.645E-04    0.814E-05
RMM:   2    -0.226335422584E+03   -0.18142E-08    0.00000E+00   490   0.206E-04    0.440E-05
RMM:   3    -0.226335422584E+03    0.98964E-10    0.00000E+00   160   0.210E-04    0.430E-05
RMM:   4    -0.226335422584E+03    0.58975E-10    0.00000E+00   133   0.209E-04
  17 F= -.22633542E+03 E0= -.22633542E+03  d E =-.268814E-05
       N       E                     dE             d eps       ncg     rms          rms(c)
DAV:   1    -0.226335422625E+03   -0.41056E-07   -0.11343E-04 14176   0.432E-02    0.133E-03
RMM:   2    -0.226335423145E+03   -0.52005E-06   -0.33359E-06  8668   0.692E-03    0.364E-03
RMM:   3    -0.226335422827E+03    0.31812E-06   -0.11034E-06  6911   0.355E-03    0.118E-03
RMM:   4    -0.226335422971E+03   -0.14491E-06   -0.55646E-07  6899   0.242E-03
  18 F= -.22633542E+03 E0= -.22633542E+03  d E =-.387959E-06
       N       E                     dE             d eps       ncg     rms          rms(c)
DAV:   1    -0.226335422792E+03    0.34853E-07   -0.77618E-06 14224   0.116E-02    0.578E-04
RMM:   2    -0.226335422820E+03   -0.28047E-07   -0.28760E-07  6919   0.207E-03    0.419E-04
RMM:   3    -0.226335422825E+03   -0.53483E-08   -0.34333E-09  1317   0.652E-04    0.462E-04
RMM:   4    -0.226335422820E+03    0.54706E-08    0.00000E+00   390   0.493E-04
  19 F= -.22633542E+03 E0= -.22633542E+03  d E =-.236117E-06
       N       E                     dE             d eps       ncg     rms          rms(c)
DAV:   1    -0.226335422817E+03    0.76868E-08   -0.97376E-07  7672   0.406E-03    0.231E-04
RMM:   2    -0.226335422819E+03   -0.14158E-08   -0.42092E-08  5537   0.103E-03    0.182E-04
RMM:   3    -0.226335422820E+03   -0.14675E-08   -0.87531E-10   299   0.376E-04    0.105E-04
RMM:   4    -0.226335422821E+03   -0.95426E-09   -0.67722E-10   233   0.406E-04
  20 F= -.22633542E+03 E0= -.22633542E+03  d E =-.237739E-06
       N       E                     dE             d eps       ncg     rms          rms(c)
DAV:   1    -0.226335422819E+03    0.87681E-09   -0.40775E-07  7544   0.265E-03    0.142E-04
RMM:   2    -0.226335422819E+03    0.11568E-09   -0.22777E-10   372   0.647E-04    0.942E-05
RMM:   3    -0.226335422819E+03    0.16215E-09   -0.36678E-12   116   0.644E-04    0.807E-05
RMM:   4    -0.226335422818E+03    0.13085E-08   -0.20233E-10   146   0.658E-04
  21 F= -.22633542E+03 E0= -.22633542E+03  d E =-.234321E-06
       N       E                     dE             d eps       ncg     rms          rms(c)
DAV:   1    -0.226335422819E+03    0.70656E-10   -0.11344E-07  7400   0.129E-03    0.129E-04
RMM:   2    -0.226335422818E+03    0.70310E-09    0.00000E+00   235   0.323E-04    0.404E-05
RMM:   3    -0.226335422818E+03    0.68707E-09    0.00000E+00   106   0.322E-04    0.394E-05
RMM:   4    -0.226335422818E+03   -0.77307E-11    0.00000E+00    87   0.325E-04
  22 F= -.22633542E+03 E0= -.22633542E+03  d E =-.234177E-06
       N       E                     dE             d eps       ncg     rms          rms(c)
DAV:   1    -0.226335422818E+03   -0.36920E-09   -0.18434E-08  7656   0.519E-04    0.682E-05
RMM:   2    -0.226335422820E+03   -0.16261E-08    0.00000E+00   218   0.174E-04    0.522E-05
RMM:   3    -0.226335422819E+03    0.47123E-09    0.00000E+00   109   0.164E-04    0.433E-05
RMM:   4    -0.226335422819E+03    0.28797E-09    0.00000E+00    87   0.160E-04
  23 F= -.22633542E+03 E0= -.22633542E+03  d E =-.235405E-06
       N       E                     dE             d eps       ncg     rms          rms(c)
DAV:   1    -0.226335422819E+03   -0.41382E-10   -0.30425E-09  7416   0.215E-04    0.512E-05
RMM:   2    -0.226335422819E+03    0.27438E-09    0.00000E+00   180   0.658E-05    0.399E-05
RMM:   3    -0.226335422819E+03    0.56474E-10    0.00000E+00    87   0.665E-05    0.398E-05
RMM:   4    -0.226335422819E+03    0.50932E-10    0.00000E+00    63   0.677E-05
  24 F= -.22633542E+03 E0= -.22633542E+03  d E =-.235352E-06
       N       E                     dE             d eps       ncg     rms          rms(c)
DAV:   1    -0.226335422819E+03    0.63380E-10   -0.19479E-10  7280   0.586E-05    0.407E-05
RMM:   2    -0.226335422819E+03   -0.14703E-09    0.00000E+00   149   0.183E-05    0.391E-05
RMM:   3    -0.226335422819E+03   -0.13699E-10    0.00000E+00    69   0.180E-05    0.391E-05
RMM:   4    -0.226335422819E+03    0.18247E-10    0.00000E+00    57   0.181E-05
  25 F= -.22633542E+03 E0= -.22633542E+03  d E =-.235483E-06
       N       E                     dE             d eps       ncg     rms          rms(c)
DAV:   1    -0.226335422819E+03    0.11312E-10   -0.29267E-11  7184   0.236E-05    0.392E-05
RMM:   2    -0.226335422819E+03    0.23874E-10    0.00000E+00   106   0.939E-06    0.391E-05
RMM:   3    -0.226335422819E+03   -0.38085E-10    0.00000E+00    62   0.921E-06    0.390E-05
RMM:   4    -0.226335422819E+03   -0.72760E-11    0.00000E+00    54   0.918E-06
  26 F= -.22633542E+03 E0= -.22633542E+03  d E =-.235511E-06
       N       E                     dE             d eps       ncg     rms          rms(c)
DAV:   1    -0.226335422831E+03   -0.12006E-07   -0.12443E-05 12736   0.143E-02    0.467E-04
RMM:   2    -0.226335422861E+03   -0.29939E-07   -0.27004E-07  6862   0.204E-03    0.402E-04
RMM:   3    -0.226335422865E+03   -0.43576E-08   -0.26884E-09   992   0.661E-04    0.169E-04
RMM:   4    -0.226335422859E+03    0.64927E-08   -0.98341E-10   545   0.701E-04
  27 F= -.22633542E+03 E0= -.22633542E+03  d E =-.398023E-07
       N       E                     dE             d eps       ncg     rms          rms(c)
DAV:   1    -0.226335422617E+03    0.24787E-06   -0.10261E-04 13904   0.412E-02    0.122E-03
RMM:   2    -0.226335422792E+03   -0.17487E-06   -0.18721E-06  7596   0.545E-03    0.453E-04
RMM:   3    -0.226335422794E+03   -0.18091E-08   -0.91344E-08  6165   0.127E-03    0.329E-04
RMM:   4    -0.226335422793E+03    0.13899E-08   -0.61588E-10  1293   0.495E-04
  28 F= -.22633542E+03 E0= -.22633542E+03  d E =0.262891E-07
       N       E                     dE             d eps       ncg     rms          rms(c)
DAV:   1    -0.226335422766E+03    0.28046E-07   -0.54215E-05 13392   0.300E-02    0.941E-04
RMM:   2    -0.226335422853E+03   -0.87153E-07   -0.96965E-07  6881   0.395E-03    0.119E-04
RMM:   3    -0.226335422861E+03   -0.73202E-08   -0.35574E-08  3485   0.974E-04    0.524E-05
RMM:   4    -0.226335422861E+03   -0.67956E-10   -0.26790E-10   259   0.582E-04
  29 F= -.22633542E+03 E0= -.22633542E+03  d E =-.415963E-07
