AlO                                     
           1
     4.802777   -0.000000    0.000000
    -2.401388    4.076140   -0.041593
     0.000000   -0.131026   13.102626
   Al   O 
  12  18
Direct configuration=     1
   0.00000000  0.00000000  0.35221672
   0.00000000  0.00000000  0.64778325
   0.00000000  0.00000000  0.14778328
   0.00000000  0.00000000  0.85221675
   0.66666669  0.33333334  0.68555007
   0.66666669  0.33333334  0.98111662
   0.66666669  0.33333334  0.48111662
   0.66666669  0.33333334  0.18555001
   0.33333334  0.66666669  0.01888338
   0.33333334  0.66666669  0.31444993
   0.33333334  0.66666669  0.81444993
   0.33333334  0.66666669  0.51888338
   0.30611761  0.00000000  0.25000000
   0.69388239  0.00000000  0.75000000
   0.00000000  0.30611761  0.25000000
   0.00000000  0.69388239  0.75000000
   0.69388239  0.69388239  0.25000000
   0.30611761  0.30611761  0.75000000
   0.97278430  0.33333334  0.58333331
   0.36054904  0.33333334  0.08333334
   0.66666669  0.63945093  0.58333331
   0.66666669  0.02721572  0.08333334
   0.36054904  0.02721572  0.58333331
   0.97278430  0.63945093  0.08333334
   0.63945093  0.66666669  0.91666669
   0.02721572  0.66666669  0.41666666
   0.33333334  0.97278430  0.91666669
   0.33333334  0.36054904  0.41666666
   0.02721572  0.36054904  0.91666669
   0.63945093  0.97278430  0.41666666
Direct configuration=     2
  -0.00129156 -0.00195415  0.35203505
   0.00129156  0.00195415  0.64796492
   0.00066260  0.00195415  0.14796495
  -0.00066260 -0.00195415  0.85203508
   0.66537513  0.33137919  0.68536839
   0.66795824  0.33528750  0.98129830
   0.66732928  0.33528750  0.48129830
   0.66600409  0.33137919  0.18536833
   0.33204179  0.66471253  0.01870170
   0.33462490  0.66862084  0.31463161
   0.33399594  0.66862084  0.81463161
   0.33267075  0.66471253  0.51870170
   0.30649893 -0.00000000  0.25000000
   0.69350107 -0.00000000  0.75000000
  -0.00055688  0.30599760  0.24978609
   0.00055688  0.69400240  0.75021391
   0.69344552  0.69400240  0.25021391
   0.30655448  0.30599760  0.74978609
   0.97316562  0.33333334  0.58333331
   0.36016772  0.33333334  0.08333334
   0.66610980  0.63933091  0.58311940
   0.66722357  0.02733574  0.08354725
   0.36011218  0.02733574  0.58354722
   0.97322117  0.63933091  0.08311943
   0.63983225  0.66666669  0.91666669
   0.02683440  0.66666669  0.41666666
   0.33277646  0.97266428  0.91645278
   0.33389023  0.36066906  0.41688057
   0.02677885  0.36066906  0.91688060
   0.63988779  0.97266428  0.41645275
Direct configuration=     3
  -0.00163188 -0.00246907  0.35198718
   0.00163188  0.00246907  0.64801279
   0.00083719  0.00246907  0.14801282
  -0.00083719 -0.00246907  0.85198721
   0.66503481  0.33086428  0.68532052
   0.66829856  0.33580241  0.98134617
   0.66750388  0.33580241  0.48134617
   0.66582950  0.33086428  0.18532046
   0.33170147  0.66419762  0.01865383
   0.33496522  0.66913575  0.31467948
   0.33417053  0.66913575  0.81467948
   0.33249615  0.66419762  0.51865383
   0.30659941 -0.00000000  0.25000000
   0.69340059 -0.00000000  0.75000000
  -0.00070362  0.30596597  0.24972973
   0.00070362  0.69403403  0.75027027
   0.69333041  0.69403403  0.25027027
   0.30666959  0.30596597  0.74972973
   0.97326610  0.33333334  0.58333331
   0.36006725  0.33333334  0.08333334
   0.66596307  0.63929929  0.58306304
   0.66737031  0.02736736  0.08360361
   0.35999706  0.02736736  0.58360359
   0.97333628  0.63929929  0.08306306
   0.63993272  0.66666669  0.91666669
   0.02673392  0.66666669  0.41666666
   0.33262972  0.97263266  0.91639641
   0.33403696  0.36070068  0.41693693
   0.02666374  0.36070068  0.91693696
   0.64000291  0.97263266  0.41639638
Direct configuration=     4
  -0.00190624 -0.00288821  0.35191795
   0.00190624  0.00288821  0.64808202
   0.00098197  0.00288821  0.14808205
  -0.00098197 -0.00288821  0.85191798
   0.66476045  0.33044513  0.68525129
   0.66857292  0.33622155  0.98141539
   0.66764866  0.33622155  0.48141539
   0.66568472  0.33044513  0.18525123
   0.33142711  0.66377848  0.01858461
   0.33523958  0.66955490  0.31474871
   0.33431531  0.66955490  0.81474871
   0.33235137  0.66377848  0.51858461
   0.30642570  0.00000000  0.25000000
   0.69357430  0.00000000  0.75000000
  -0.00022038  0.30661739  0.24978256
   0.00022038  0.69338261  0.75021744
   0.69316224  0.69338261  0.25021744
   0.30683776  0.30661739  0.74978256
   0.97309239  0.33333334  0.58333331
   0.36024095  0.33333334  0.08333334
   0.66644631  0.63995070  0.58311587
   0.66688707  0.02671595  0.08355078
   0.35982889  0.02671595  0.58355076
   0.97350445  0.63995070  0.08311589
   0.63975902  0.66666669  0.91666669
   0.02690763  0.66666669  0.41666666
   0.33311296  0.97328407  0.91644924
   0.33355372  0.36004927  0.41688410
   0.02649557  0.36004927  0.91688413
   0.64017108  0.97328407  0.41644921
Direct configuration=     5
  -0.00203119 -0.00307909  0.35188642
   0.00203119  0.00307909  0.64811355
   0.00104791  0.00307909  0.14811358
  -0.00104791 -0.00307909  0.85188645
   0.66463550  0.33025425  0.68521977
   0.66869787  0.33641244  0.98144692
   0.66771459  0.33641244  0.48144692
   0.66561878  0.33025425  0.18521971
   0.33130216  0.66358759  0.01855308
   0.33536453  0.66974578  0.31478023
   0.33438125  0.66974578  0.81478023
   0.33228544  0.66358759  0.51855308
   0.30634659  0.00000000  0.25000000
   0.69365341  0.00000000  0.75000000
  -0.00000030  0.30691405  0.24980662
   0.00000030  0.69308595  0.75019338
   0.69308565  0.69308595  0.25019338
   0.30691435  0.30691405  0.74980662
   0.97301328  0.33333334  0.58333331
   0.36032006  0.33333334  0.08333334
   0.66666638  0.64024736  0.58313993
   0.66666699  0.02641928  0.08352672
   0.35975231  0.02641928  0.58352670
   0.97358104  0.64024736  0.08313995
   0.63967991  0.66666669  0.91666669
   0.02698674  0.66666669  0.41666666
   0.33333304  0.97358074  0.91647330
   0.33333365  0.35975261  0.41686004
   0.02641898  0.35975261  0.91686007
   0.64024767  0.97358074  0.41647327
Direct configuration=     6
  -0.00206049 -0.00304788  0.35186963
   0.00206049  0.00304788  0.64813034
   0.00098739  0.00304788  0.14813037
  -0.00098739 -0.00304788  0.85186966
   0.66460619  0.33028546  0.68520297
   0.66872718  0.33638123  0.98146371
   0.66765408  0.33638123  0.48146371
   0.66567930  0.33028546  0.18520292
   0.33127285  0.66361880  0.01853629
   0.33539384  0.66971457  0.31479703
   0.33432073  0.66971457  0.81479703
   0.33234595  0.66361880  0.51853629
   0.30624707  0.00000000  0.25000000
   0.69375293  0.00000000  0.75000000
   0.00004132  0.30696075  0.24976948
  -0.00004132  0.69303925  0.75023052
   0.69308058  0.69303925  0.25023052
   0.30691942  0.30696075  0.74976948
   0.97291376  0.33333334  0.58333331
   0.36041958  0.33333334  0.08333334
   0.66670801  0.64029406  0.58310279
   0.66662536  0.02637259  0.08356386
   0.35974723  0.02637259  0.58356384
   0.97358611  0.64029406  0.08310281
   0.63958039  0.66666669  0.91666669
   0.02708626  0.66666669  0.41666666
   0.33337467  0.97362743  0.91643616
   0.33329202  0.35970591  0.41689718
   0.02641391  0.35970591  0.91689721
   0.64025274  0.97362743  0.41643613
Direct configuration=     7
  -0.00208511 -0.00302167  0.35185553
   0.00208511  0.00302167  0.64814444
   0.00093656  0.00302167  0.14814447
  -0.00093656 -0.00302167  0.85185556
   0.66458158  0.33031167  0.68518887
   0.66875180  0.33635502  0.98147782
   0.66760325  0.33635502  0.48147782
   0.66573012  0.33031167  0.18518881
   0.33124823  0.66364501  0.01852218
   0.33541845  0.66968836  0.31481113
   0.33426991  0.66968836  0.81481113
   0.33239678  0.66364501  0.51852218
   0.30616349  0.00000000  0.25000000
   0.69383651  0.00000000  0.75000000
   0.00007628  0.30699997  0.24973828
  -0.00007628  0.69300003  0.75026172
   0.69307631  0.69300003  0.25026172
   0.30692369  0.30699997  0.74973828
   0.97283017  0.33333334  0.58333331
   0.36050317  0.33333334  0.08333334
   0.66674297  0.64033328  0.58307160
   0.66659040  0.02633337  0.08359505
   0.35974297  0.02633337  0.58359503
   0.97359037  0.64033328  0.08307162
   0.63949680  0.66666669  0.91666669
   0.02716985  0.66666669  0.41666666
   0.33340963  0.97366666  0.91640497
   0.33325706  0.35966669  0.41692837
   0.02640965  0.35966669  0.91692840
   0.64025700  0.97366666  0.41640494
Direct configuration=     8
  -0.00202441 -0.00302272  0.35185725
   0.00202441  0.00302272  0.64814272
   0.00099831  0.00302272  0.14814275
  -0.00099831 -0.00302272  0.85185728
   0.66464228  0.33031063  0.68519059
   0.66869109  0.33635606  0.98147609
   0.66766500  0.33635606  0.48147609
   0.66566838  0.33031063  0.18519053
   0.33130894  0.66364397  0.01852391
   0.33535775  0.66968940  0.31480941
   0.33433165  0.66968940  0.81480941
   0.33233503  0.66364397  0.51852391
   0.30613803  0.00000000  0.25000000
   0.69386197  0.00000000  0.75000000
   0.00011859  0.30703803  0.24970936
  -0.00011859  0.69296197  0.75029064
   0.69308057  0.69296197  0.25029064
   0.30691943  0.30703803  0.74970936
   0.97280471  0.33333334  0.58333331
   0.36052863  0.33333334  0.08333334
   0.66678528  0.64037134  0.58304268
   0.66654809  0.02629531  0.08362397
   0.35974722  0.02629531  0.58362395
   0.97358612  0.64037134  0.08304270
   0.63947134  0.66666669  0.91666669
   0.02719531  0.66666669  0.41666666
   0.33345194  0.97370471  0.91637605
   0.33321475  0.35962863  0.41695729
   0.02641390  0.35962863  0.91695732
   0.64025275  0.97370471  0.41637602
Direct configuration=     9
  -0.00199126 -0.00302329  0.35185819
   0.00199126  0.00302329  0.64814178
   0.00103203  0.00302329  0.14814181
  -0.00103203 -0.00302329  0.85185822
   0.66467543  0.33031006  0.68519153
   0.66865794  0.33635663  0.98147515
   0.66769872  0.33635663  0.48147515
   0.66563466  0.33031006  0.18519148
   0.33134209  0.66364340  0.01852485
   0.33532460  0.66968997  0.31480847
   0.33436537  0.66968997  0.81480847
   0.33230131  0.66364340  0.51852485
   0.30612412  0.00000000  0.25000000
   0.69387588  0.00000000  0.75000000
   0.00014170  0.30705881  0.24969357
  -0.00014170  0.69294119  0.75030643
   0.69308289  0.69294119  0.25030643
   0.30691711  0.30705881  0.74969357
   0.97279081  0.33333334  0.58333331
   0.36054253  0.33333334  0.08333334
   0.66680839  0.64039212  0.58302688
   0.66652499  0.02627452  0.08363976
   0.35974955  0.02627452  0.58363974
   0.97358380  0.64039212  0.08302691
   0.63945744  0.66666669  0.91666669
   0.02720921  0.66666669  0.41666666
   0.33347504  0.97372550  0.91636026
   0.33319164  0.35960785  0.41697309
   0.02641622  0.35960785  0.91697312
   0.64025042  0.97372550  0.41636023
Direct configuration=    10
  -0.00199284 -0.00302326  0.35185815
   0.00199284  0.00302326  0.64814182
   0.00103042  0.00302326  0.14814185
  -0.00103042 -0.00302326  0.85185818
   0.66467385  0.33031008  0.68519149
   0.66865953  0.33635660  0.98147520
   0.66769710  0.33635660  0.48147520
   0.66563627  0.33031008  0.18519143
   0.33134050  0.66364343  0.01852480
   0.33532618  0.66968995  0.31480851
   0.33436376  0.66968995  0.81480851
   0.33230293  0.66364343  0.51852480
   0.30612479  0.00000000  0.25000000
   0.69387521  0.00000000  0.75000000
   0.00014059  0.30705782  0.24969433
  -0.00014059  0.69294218  0.75030567
   0.69308278  0.69294218  0.25030567
   0.30691722  0.30705782  0.74969433
   0.97279148  0.33333334  0.58333331
   0.36054187  0.33333334  0.08333334
   0.66680728  0.64039113  0.58302764
   0.66652609  0.02627552  0.08363901
   0.35974944  0.02627552  0.58363899
   0.97358391  0.64039113  0.08302766
   0.63945810  0.66666669  0.91666669
   0.02720855  0.66666669  0.41666666
   0.33347394  0.97372450  0.91636101
   0.33319275  0.35960884  0.41697233
   0.02641611  0.35960884  0.91697236
   0.64025054  0.97372450  0.41636098
Direct configuration=    11
  -0.00199185 -0.00302328  0.35185818
   0.00199185  0.00302328  0.64814179
   0.00103142  0.00302328  0.14814182
  -0.00103142 -0.00302328  0.85185821
   0.66467483  0.33031007  0.68519152
   0.66865854  0.33635662  0.98147517
   0.66769811  0.33635662  0.48147517
   0.66563527  0.33031007  0.18519146
   0.33134149  0.66364341  0.01852483
   0.33532520  0.66968996  0.31480848
   0.33436476  0.66968996  0.81480848
   0.33230192  0.66364341  0.51852483
   0.30612437  0.00000000  0.25000000
   0.69387563  0.00000000  0.75000000
   0.00014128  0.30705843  0.24969386
  -0.00014128  0.69294157  0.75030614
   0.69308285  0.69294157  0.25030614
   0.30691715  0.30705843  0.74969386
   0.97279106  0.33333334  0.58333331
   0.36054228  0.33333334  0.08333334
   0.66680797  0.64039175  0.58302717
   0.66652541  0.02627490  0.08363948
   0.35974950  0.02627490  0.58363946
   0.97358384  0.64039175  0.08302719
   0.63945769  0.66666669  0.91666669
   0.02720896  0.66666669  0.41666666
   0.33347462  0.97372512  0.91636054
   0.33319206  0.35960822  0.41697280
   0.02641618  0.35960822  0.91697283
   0.64025047  0.97372512  0.41636051
Direct configuration=    12
  -0.00200066 -0.00302646  0.35186504
   0.00200066  0.00302646  0.64813493
   0.00102580  0.00302646  0.14813496
  -0.00102580 -0.00302646  0.85186507
   0.66466603  0.33030688  0.68519838
   0.66866735  0.33635980  0.98146830
   0.66769249  0.33635980  0.48146830
   0.66564089  0.33030688  0.18519832
   0.33133268  0.66364023  0.01853170
   0.33533400  0.66969315  0.31480162
   0.33435914  0.66969315  0.81480162
   0.33230754  0.66364023  0.51853170
   0.30613322  0.00000000  0.25000000
   0.69386678  0.00000000  0.75000000
   0.00015165  0.30706515  0.24969057
  -0.00015165  0.69293485  0.75030943
   0.69308650  0.69293485  0.25030943
   0.30691350  0.30706515  0.74969057
   0.97279991  0.33333334  0.58333331
   0.36053344  0.33333334  0.08333334
   0.66681834  0.64039847  0.58302388
   0.66651504  0.02626818  0.08364277
   0.35975315  0.02626818  0.58364275
   0.97358019  0.64039847  0.08302390
   0.63946653  0.66666669  0.91666669
   0.02720011  0.66666669  0.41666666
   0.33348499  0.97373184  0.91635725
   0.33318169  0.35960150  0.41697609
   0.02641983  0.35960150  0.91697612
   0.64024682  0.97373184  0.41635722
Direct configuration=    13
  -0.00200475 -0.00302794  0.35186823
   0.00200475  0.00302794  0.64813174
   0.00102319  0.00302794  0.14813177
  -0.00102319 -0.00302794  0.85186826
   0.66466194  0.33030540  0.68520157
   0.66867144  0.33636128  0.98146512
   0.66768988  0.33636128  0.48146512
   0.66564350  0.33030540  0.18520151
   0.33132859  0.66363875  0.01853488
   0.33533809  0.66969463  0.31479843
   0.33435653  0.66969463  0.81479843
   0.33231015  0.66363875  0.51853488
   0.30613733  0.00000000  0.25000000
   0.69386267  0.00000000  0.75000000
   0.00015646  0.30706827  0.24968904
  -0.00015646  0.69293173  0.75031096
   0.69308819  0.69293173  0.25031096
   0.30691181  0.30706827  0.74968904
   0.97280401  0.33333334  0.58333331
   0.36052933  0.33333334  0.08333334
   0.66682315  0.64040159  0.58302235
   0.66651022  0.02626506  0.08364430
   0.35975485  0.02626506  0.58364427
   0.97357850  0.64040159  0.08302238
   0.63947064  0.66666669  0.91666669
   0.02719601  0.66666669  0.41666666
   0.33348981  0.97373496  0.91635573
   0.33317688  0.35959838  0.41697762
   0.02642152  0.35959838  0.91697765
   0.64024512  0.97373496  0.41635570
Direct configuration=    14
  -0.00200429 -0.00302777  0.35186787
   0.00200429  0.00302777  0.64813210
   0.00102348  0.00302777  0.14813213
  -0.00102348 -0.00302777  0.85186790
   0.66466240  0.33030557  0.68520121
   0.66867098  0.33636111  0.98146548
   0.66769017  0.33636111  0.48146548
   0.66564320  0.33030557  0.18520115
   0.33132905  0.66363892  0.01853452
   0.33533763  0.66969446  0.31479879
   0.33435683  0.66969446  0.81479879
   0.33230986  0.66363892  0.51853452
   0.30613686  0.00000000  0.25000000
   0.69386314  0.00000000  0.75000000
   0.00015592  0.30706792  0.24968921
  -0.00015592  0.69293208  0.75031079
   0.69308800  0.69293208  0.25031079
   0.30691200  0.30706792  0.74968921
   0.97280355  0.33333334  0.58333331
   0.36052979  0.33333334  0.08333334
   0.66682261  0.64040124  0.58302253
   0.66651077  0.02626541  0.08364412
   0.35975466  0.02626541  0.58364410
   0.97357869  0.64040124  0.08302255
   0.63947018  0.66666669  0.91666669
   0.02719647  0.66666669  0.41666666
   0.33348926  0.97373461  0.91635590
   0.33317742  0.35959873  0.41697744
   0.02642133  0.35959873  0.91697747
   0.64024532  0.97373461  0.41635587
Direct configuration=    15
  -0.00200461 -0.00302789  0.35186812
   0.00200461  0.00302789  0.64813185
   0.00102328  0.00302789  0.14813188
  -0.00102328 -0.00302789  0.85186815
   0.66466207  0.33030545  0.68520146
   0.66867130  0.33636123  0.98146522
   0.66768996  0.33636123  0.48146522
   0.66564341  0.33030545  0.18520140
   0.33132873  0.66363880  0.01853478
   0.33533796  0.66969458  0.31479854
   0.33435662  0.66969458  0.81479854
   0.33231007  0.66363880  0.51853478
   0.30613719  0.00000000  0.25000000
   0.69386281  0.00000000  0.75000000
   0.00015630  0.30706817  0.24968909
  -0.00015630  0.69293183  0.75031091
   0.69308813  0.69293183  0.25031091
   0.30691187  0.30706817  0.74968909
   0.97280388  0.33333334  0.58333331
   0.36052947  0.33333334  0.08333334
   0.66682299  0.64040148  0.58302240
   0.66651039  0.02626516  0.08364424
   0.35975479  0.02626516  0.58364422
   0.97357855  0.64040148  0.08302243
   0.63947050  0.66666669  0.91666669
   0.02719615  0.66666669  0.41666666
   0.33348964  0.97373486  0.91635578
   0.33317704  0.35959849  0.41697757
   0.02642147  0.35959849  0.91697760
   0.64024518  0.97373486  0.41635575
Direct configuration=    16
  -0.00200445 -0.00302783  0.35186799
   0.00200445  0.00302783  0.64813198
   0.00102338  0.00302783  0.14813201
  -0.00102338 -0.00302783  0.85186802
   0.66466224  0.33030551  0.68520134
   0.66867114  0.33636117  0.98146535
   0.66769007  0.33636117  0.48146535
   0.66564331  0.33030551  0.18520128
   0.33132889  0.66363886  0.01853465
   0.33533779  0.66969452  0.31479866
   0.33435672  0.66969452  0.81479866
   0.33230996  0.66363886  0.51853465
   0.30613703  0.00000000  0.25000000
   0.69386297  0.00000000  0.75000000
   0.00015611  0.30706805  0.24968915
  -0.00015611  0.69293195  0.75031085
   0.69308807  0.69293195  0.25031085
   0.30691193  0.30706805  0.74968915
   0.97280371  0.33333334  0.58333331
   0.36052963  0.33333334  0.08333334
   0.66682280  0.64040136  0.58302246
   0.66651058  0.02626529  0.08364418
   0.35975472  0.02626529  0.58364416
   0.97357862  0.64040136  0.08302249
   0.63947034  0.66666669  0.91666669
   0.02719631  0.66666669  0.41666666
   0.33348945  0.97373473  0.91635584
   0.33317723  0.35959861  0.41697751
   0.02642140  0.35959861  0.91697754
   0.64024525  0.97373473  0.41635581
Direct configuration=    17
  -0.00200454 -0.00302786  0.35186806
   0.00200454  0.00302786  0.64813191
   0.00102332  0.00302786  0.14813194
  -0.00102332 -0.00302786  0.85186809
   0.66466215  0.33030548  0.68520140
   0.66867122  0.33636120  0.98146528
   0.66769001  0.33636120  0.48146528
   0.66564336  0.33030548  0.18520135
   0.33132881  0.66363883  0.01853472
   0.33533788  0.66969455  0.31479860
   0.33435667  0.66969455  0.81479860
   0.33231002  0.66363883  0.51853472
   0.30613711  0.00000000  0.25000000
   0.69386289  0.00000000  0.75000000
   0.00015621  0.30706811  0.24968912
  -0.00015621  0.69293189  0.75031088
   0.69308810  0.69293189  0.25031088
   0.30691190  0.30706811  0.74968912
   0.97280380  0.33333334  0.58333331
   0.36052954  0.33333334  0.08333334
   0.66682290  0.64040143  0.58302243
   0.66651047  0.02626522  0.08364422
   0.35975476  0.02626522  0.58364419
   0.97357859  0.64040143  0.08302246
   0.63947043  0.66666669  0.91666669
   0.02719622  0.66666669  0.41666666
   0.33348956  0.97373480  0.91635581
   0.33317713  0.35959855  0.41697754
   0.02642143  0.35959855  0.91697757
   0.64024521  0.97373480  0.41635578
Direct configuration=    18
  -0.00200677 -0.00302957  0.35186832
   0.00200677  0.00302957  0.64813165
   0.00102280  0.00302957  0.14813168
  -0.00102280 -0.00302957  0.85186835
   0.66465991  0.33030377  0.68520166
   0.66867346  0.33636292  0.98146503
   0.66768949  0.33636292  0.48146503
   0.66564389  0.33030377  0.18520160
   0.33132657  0.66363711  0.01853497
   0.33534012  0.66969626  0.31479834
   0.33435614  0.66969626  0.81479834
   0.33231054  0.66363711  0.51853497
   0.30613648  0.00000000  0.25000000
   0.69386352  0.00000000  0.75000000
   0.00016219  0.30706433  0.24968887
  -0.00016219  0.69293567  0.75031113
   0.69309786  0.69293567  0.25031113
   0.30690214  0.30706433  0.74968887
   0.97280317  0.33333334  0.58333331
   0.36053018  0.33333334  0.08333334
   0.66682888  0.64039765  0.58302218
   0.66650450  0.02626900  0.08364447
   0.35976452  0.02626900  0.58364444
   0.97356883  0.64039765  0.08302220
   0.63946979  0.66666669  0.91666669
   0.02719686  0.66666669  0.41666666
   0.33349553  0.97373102  0.91635556
   0.33317115  0.35960233  0.41697779
   0.02643119  0.35960233  0.91697782
   0.64023545  0.97373102  0.41635553
Direct configuration=    19
  -0.00200736 -0.00303002  0.35186839
   0.00200736  0.00303002  0.64813158
   0.00102266  0.00303002  0.14813161
  -0.00102266 -0.00303002  0.85186842
   0.66465933  0.33030332  0.68520173
   0.66867405  0.33636337  0.98146496
   0.66768935  0.33636337  0.48146496
   0.66564402  0.33030332  0.18520167
   0.33132598  0.66363666  0.01853504
   0.33534070  0.66969671  0.31479827
   0.33435601  0.66969671  0.81479827
   0.33231068  0.66363666  0.51853504
   0.30613631  0.00000000  0.25000000
   0.69386369  0.00000000  0.75000000
   0.00016376  0.30706334  0.24968880
  -0.00016376  0.69293666  0.75031120
   0.69310042  0.69293666  0.25031120
   0.30689958  0.30706334  0.74968880
   0.97280300  0.33333334  0.58333331
   0.36053035  0.33333334  0.08333334
   0.66683045  0.64039665  0.58302212
   0.66650292  0.02627000  0.08364453
   0.35976708  0.02627000  0.58364451
   0.97356626  0.64039665  0.08302214
   0.63946963  0.66666669  0.91666669
   0.02719702  0.66666669  0.41666666
   0.33349711  0.97373002  0.91635549
   0.33316958  0.35960332  0.41697785
   0.02643376  0.35960332  0.91697788
   0.64023289  0.97373002  0.41635546
Direct configuration=    20
  -0.00200715 -0.00302986  0.35186836
   0.00200715  0.00302986  0.64813161
   0.00102271  0.00302986  0.14813164
  -0.00102271 -0.00302986  0.85186839
   0.66465954  0.33030348  0.68520170
   0.66867384  0.33636321  0.98146498
   0.66768940  0.33636321  0.48146498
   0.66564398  0.33030348  0.18520165
   0.33132619  0.66363682  0.01853502
   0.33534049  0.66969655  0.31479830
   0.33435605  0.66969655  0.81479830
   0.33231063  0.66363682  0.51853502
   0.30613637  0.00000000  0.25000000
   0.69386363  0.00000000  0.75000000
   0.00016320  0.30706369  0.24968883
  -0.00016320  0.69293631  0.75031117
   0.69309951  0.69293631  0.25031117
   0.30690049  0.30706369  0.74968883
   0.97280306  0.33333334  0.58333331
   0.36053029  0.33333334  0.08333334
   0.66682989  0.64039701  0.58302214
   0.66650349  0.02626964  0.08364451
   0.35976617  0.02626964  0.58364449
   0.97356718  0.64039701  0.08302216
   0.63946968  0.66666669  0.91666669
   0.02719696  0.66666669  0.41666666
   0.33349654  0.97373038  0.91635551
   0.33317014  0.35960296  0.41697783
   0.02643284  0.35960296  0.91697786
   0.64023380  0.97373038  0.41635548
Direct configuration=    21
  -0.00200729 -0.00302997  0.35186838
   0.00200729  0.00302997  0.64813159
   0.00102268  0.00302997  0.14813162
  -0.00102268 -0.00302997  0.85186841
   0.66465939  0.33030337  0.68520172
   0.66867398  0.33636332  0.98146497
   0.66768937  0.33636332  0.48146497
   0.66564401  0.33030337  0.18520166
   0.33132605  0.66363671  0.01853503
   0.33534064  0.66969666  0.31479828
   0.33435602  0.66969666  0.81479828
   0.33231066  0.66363671  0.51853503
   0.30613633  0.00000000  0.25000000
   0.69386367  0.00000000  0.75000000
   0.00016359  0.30706345  0.24968881
  -0.00016359  0.69293655  0.75031119
   0.69310014  0.69293655  0.25031119
   0.30689986  0.30706345  0.74968881
   0.97280302  0.33333334  0.58333331
   0.36053033  0.33333334  0.08333334
   0.66683027  0.64039676  0.58302212
   0.66650310  0.02626988  0.08364453
   0.35976679  0.02626988  0.58364450
   0.97356655  0.64039676  0.08302215
   0.63946964  0.66666669  0.91666669
   0.02719700  0.66666669  0.41666666
   0.33349693  0.97373014  0.91635550
   0.33316976  0.35960321  0.41697785
   0.02643347  0.35960321  0.91697788
   0.64023318  0.97373014  0.41635547
Direct configuration=    22
  -0.00200722 -0.00302992  0.35186837
   0.00200722  0.00302992  0.64813160
   0.00102270  0.00302992  0.14813163
  -0.00102270 -0.00302992  0.85186840
   0.66465946  0.33030342  0.68520171
   0.66867391  0.33636326  0.98146497
   0.66768938  0.33636326  0.48146497
   0.66564399  0.33030342  0.18520165
   0.33132612  0.66363677  0.01853503
   0.33534057  0.66969661  0.31479829
   0.33435604  0.66969661  0.81479829
   0.33231065  0.66363677  0.51853503
   0.30613635  0.00000000  0.25000000
   0.69386365  0.00000000  0.75000000
   0.00016339  0.30706357  0.24968882
  -0.00016339  0.69293643  0.75031118
   0.69309982  0.69293643  0.25031118
   0.30690018  0.30706357  0.74968882
   0.97280304  0.33333334  0.58333331
   0.36053031  0.33333334  0.08333334
   0.66683008  0.64039689  0.58302213
   0.66650329  0.02626976  0.08364452
   0.35976648  0.02626976  0.58364450
   0.97356686  0.64039689  0.08302215
   0.63946966  0.66666669  0.91666669
   0.02719698  0.66666669  0.41666666
   0.33349674  0.97373026  0.91635550
   0.33316995  0.35960309  0.41697784
   0.02643316  0.35960309  0.91697787
   0.64023349  0.97373026  0.41635547
Direct configuration=    23
  -0.00200726 -0.00302994  0.35186837
   0.00200726  0.00302994  0.64813160
   0.00102269  0.00302994  0.14813163
  -0.00102269 -0.00302994  0.85186840
   0.66465943  0.33030340  0.68520172
   0.66867394  0.33636329  0.98146497
   0.66768937  0.33636329  0.48146497
   0.66564400  0.33030340  0.18520166
   0.33132609  0.66363674  0.01853503
   0.33534060  0.66969663  0.31479828
   0.33435603  0.66969663  0.81479828
   0.33231066  0.66363674  0.51853503
   0.30613634  0.00000000  0.25000000
   0.69386366  0.00000000  0.75000000
   0.00016348  0.30706352  0.24968881
  -0.00016348  0.69293648  0.75031119
   0.69309997  0.69293648  0.25031119
   0.30690003  0.30706352  0.74968881
   0.97280303  0.33333334  0.58333331
   0.36053032  0.33333334  0.08333334
   0.66683017  0.64039683  0.58302213
   0.66650321  0.02626982  0.08364452
   0.35976662  0.02626982  0.58364450
   0.97356672  0.64039683  0.08302215
   0.63946966  0.66666669  0.91666669
   0.02719699  0.66666669  0.41666666
   0.33349682  0.97373020  0.91635550
   0.33316986  0.35960314  0.41697784
   0.02643330  0.35960314  0.91697787
   0.64023335  0.97373020  0.41635547
Direct configuration=    24
  -0.00200724 -0.00302993  0.35186837
   0.00200724  0.00302993  0.64813160
   0.00102269  0.00302993  0.14813163
  -0.00102269 -0.00302993  0.85186840
   0.66465945  0.33030341  0.68520171
   0.66867393  0.33636328  0.98146497
   0.66768938  0.33636328  0.48146497
   0.66564400  0.33030341  0.18520166
   0.33132610  0.66363675  0.01853503
   0.33534058  0.66969662  0.31479829
   0.33435603  0.66969662  0.81479829
   0.33231065  0.66363675  0.51853503
   0.30613635  0.00000000  0.25000000
   0.69386365  0.00000000  0.75000000
   0.00016344  0.30706354  0.24968882
  -0.00016344  0.69293646  0.75031118
   0.69309990  0.69293646  0.25031118
   0.30690010  0.30706354  0.74968882
   0.97280303  0.33333334  0.58333331
   0.36053031  0.33333334  0.08333334
   0.66683013  0.64039685  0.58302213
   0.66650324  0.02626979  0.08364452
   0.35976656  0.02626979  0.58364450
   0.97356678  0.64039685  0.08302215
   0.63946966  0.66666669  0.91666669
   0.02719699  0.66666669  0.41666666
   0.33349679  0.97373023  0.91635550
   0.33316990  0.35960312  0.41697784
   0.02643324  0.35960312  0.91697787
   0.64023341  0.97373023  0.41635547
Direct configuration=    25
  -0.00200725 -0.00302994  0.35186837
   0.00200725  0.00302994  0.64813160
   0.00102269  0.00302994  0.14813163
  -0.00102269 -0.00302994  0.85186840
   0.66465944  0.33030341  0.68520172
   0.66867393  0.33636328  0.98146497
   0.66768938  0.33636328  0.48146497
   0.66564400  0.33030341  0.18520166
   0.33132610  0.66363675  0.01853503
   0.33534059  0.66969662  0.31479828
   0.33435603  0.66969662  0.81479828
   0.33231065  0.66363675  0.51853503
   0.30613634  0.00000000  0.25000000
   0.69386366  0.00000000  0.75000000
   0.00016345  0.30706353  0.24968882
  -0.00016345  0.69293647  0.75031118
   0.69309992  0.69293647  0.25031118
   0.30690008  0.30706353  0.74968882
   0.97280303  0.33333334  0.58333331
   0.36053031  0.33333334  0.08333334
   0.66683014  0.64039685  0.58302213
   0.66650323  0.02626980  0.08364452
   0.35976658  0.02626980  0.58364450
   0.97356677  0.64039685  0.08302215
   0.63946966  0.66666669  0.91666669
   0.02719699  0.66666669  0.41666666
   0.33349680  0.97373022  0.91635550
   0.33316989  0.35960312  0.41697784
   0.02643325  0.35960312  0.91697787
   0.64023340  0.97373022  0.41635547
Direct configuration=    26
  -0.00200724 -0.00302993  0.35186837
   0.00200724  0.00302993  0.64813160
   0.00102269  0.00302993  0.14813163
  -0.00102269 -0.00302993  0.85186840
   0.66465944  0.33030341  0.68520172
   0.66867393  0.33636328  0.98146497
   0.66768938  0.33636328  0.48146497
   0.66564400  0.33030341  0.18520166
   0.33132610  0.66363675  0.01853503
   0.33534059  0.66969662  0.31479828
   0.33435603  0.66969662  0.81479828
   0.33231065  0.66363675  0.51853503
   0.30613634  0.00000000  0.25000000
   0.69386366  0.00000000  0.75000000
   0.00016345  0.30706354  0.24968882