       N       E                     dE             d eps       ncg     rms          rms(c)
DAV:   1     0.268341081554E+02    0.26834E+02   -0.84874E+03  1560   0.798E+02
DAV:   2    -0.220165547307E+02   -0.48851E+02   -0.45480E+02  1908   0.884E+01
DAV:   3    -0.242756074618E+02   -0.22591E+01   -0.21751E+01  1938   0.167E+01
DAV:   4    -0.243343835081E+02   -0.58776E-01   -0.57160E-01  2056   0.308E+00
DAV:   5    -0.243361999614E+02   -0.18165E-02   -0.18156E-02  2138   0.541E-01    0.274E+00
RMM:   6    -0.243335981153E+02    0.26018E-02   -0.81690E-03  1560   0.622E-01    0.176E+00
RMM:   7    -0.243360310722E+02   -0.24330E-02   -0.30795E-02  1560   0.131E+00    0.117E-01
RMM:   8    -0.243358795863E+02    0.15149E-03   -0.31075E-04  1563   0.114E-01    0.347E-02
RMM:   9    -0.243358973734E+02   -0.17787E-04   -0.52464E-05  1755   0.402E-02    0.187E-03
RMM:  10    -0.243359012524E+02   -0.38790E-05   -0.36461E-06  1271   0.938E-03    0.705E-04
RMM:  11    -0.243359028629E+02   -0.16105E-05   -0.45823E-07   945   0.399E-03    0.138E-04
RMM:  12    -0.243359029962E+02   -0.13331E-06   -0.19545E-07   853   0.262E-03
   1 F= -.24335903E+02 E0= -.24327448E+02  d E =-.243359E+02
