 vasp.5.3.5 31Mar14 (build Nov 12 2015 11:19:23) complex                         
 executed on           CrayXC_GCC date 2016.07.03  13:58:17
 running on   96 total cores
 distrk:  each k-point on   24 cores,    4 groups
 distr:  one band on NCORES_PER_BAND=  12 cores,    2 groups


--------------------------------------------------------------------------------------------------------


 INCAR:
 POTCAR:   PAW_GGA Mg 05Jan2001                   

 ----------------------------------------------------------------------------- 
|                                                                             |
|           W    W    AA    RRRRR   N    N  II  N    N   GGGG   !!!           |
|           W    W   A  A   R    R  NN   N  II  NN   N  G    G  !!!           |
|           W    W  A    A  R    R  N N  N  II  N N  N  G       !!!           |
|           W WW W  AAAAAA  RRRRR   N  N N  II  N  N N  G  GGG   !            |
|           WW  WW  A    A  R   R   N   NN  II  N   NN  G    G                |
|           W    W  A    A  R    R  N    N  II  N    N   GGGG   !!!           |
|                                                                             |
|      You have enabled k-point parallelism (KPAR>1).                         |
|      This developmental code was originally  written by Paul Kent at ORNL,  |
|      and carefully double checked in Vienna.                                |
|      GW as well as linear response parallelism added by Martijn Marsman     |
|      and Georg Kresse.                                                      |
|      Carefully verify results versus KPAR=1.                                |
|      Report problems to Paul Kent and Vienna.                               |
|                                                                             |
 ----------------------------------------------------------------------------- 

 POTCAR:   PAW_GGA Mg 05Jan2001                   
   VRHFIN =Mg: s2p0                                                             
   LEXCH  = 91                                                                  
   EATOM  =    23.0823 eV,    1.6965 Ry                                         
                                                                                
   TITEL  = PAW_GGA Mg 05Jan2001                                                
   LULTRA =        F    use ultrasoft PP ?                                      
   IUNSCR =        1    unscreen: 0-lin 1-nonlin 2-no                           
   RPACOR =    2.000    partial core radius                                     
   POMASS =   24.305; ZVAL   =    2.000    mass and valenz                      
   RCORE  =    2.000    outmost cutoff radius                                   
   RWIGS  =    2.880; RWIGS  =    1.524    wigner-seitz radius (au A)           
   ENMAX  =  210.083; ENMIN  =  157.562 eV                                      
   ICORE  =        2    local potential                                         
   LCOR   =        T    correct aug charges                                     
   LPAW   =        T    paw PP                                                  
   EAUG   =  274.554                                                            
   DEXC   =    -.096                                                            
   RMAX   =    3.181    core radius for proj-oper                               
   RAUG   =    1.300    factor for augmentation sphere                          
   RDEP   =    2.025    core radius for depl-charge                             
   QCUT   =   -3.929; QGAM   =    7.859    optimization parameters              
                                                                                
   Description                                                                  
     l     E      TYP  RCUT    TYP  RCUT                                        
     0   .000     23  2.000                                                     
     0  2.000     23  2.000                                                     
     1   .000     23  2.000                                                     
     1  2.000     23  2.000                                                     
     2   .000     23  2.000                                                     
  local pseudopotential read in
  partial core-charges read in
  atomic valenz-charges read in
  non local Contribution for L=           0  read in
    real space projection operators read in
  non local Contribution for L=           0  read in
    real space projection operators read in
  non local Contribution for L=           1  read in
    real space projection operators read in
  non local Contribution for L=           1  read in
    real space projection operators read in
    PAW grid and wavefunctions read in

   number of l-projection  operators is LMAX  =           4
   number of lm-projection operators is LMMAX =           8

 PAW_GGA Mg 05Jan2001                   :
 energy of atom  1       EATOM=  -23.0823
 kinetic energy error for atom=    0.0001 (will be added to EATOM!!)


 POSCAR: Mg                                      
  positions in direct lattice
  No initial velocities read in
 exchange correlation table for  LEXCH =        7
   RHO(1)=    0.500       N(1)  =     2000
   RHO(2)=  100.500       N(2)  =     4000



--------------------------------------------------------------------------------------------------------


 ion  position               nearest neighbor table
   1  0.167  0.333  0.125-   5 3.20   5 3.20   7 3.20   7 3.20   3 3.20   3 3.20  13 3.21  14 3.21
                            11 3.21  12 3.21   9 3.21  10 3.21
   2  0.167  0.333  0.625-   6 3.20   6 3.20   8 3.20   8 3.20   4 3.20   4 3.20  13 3.21  14 3.21
                            11 3.21  12 3.21   9 3.21  10 3.21
   3  0.167  0.833  0.125-   7 3.20   7 3.20   5 3.20   5 3.20   1 3.20   1 3.20  15 3.21  16 3.21
                             9 3.21  10 3.21  11 3.21  12 3.21
   4  0.167  0.833  0.625-   8 3.20   8 3.20   6 3.20   6 3.20   2 3.20   2 3.20  15 3.21  16 3.21
                             9 3.21  10 3.21  11 3.21  12 3.21
   5  0.667  0.333  0.125-   1 3.20   1 3.20   3 3.20   3 3.20   7 3.20   7 3.20  10 3.21   9 3.21
                            16 3.21  15 3.21  14 3.21  13 3.21
   6  0.667  0.333  0.625-   2 3.20   2 3.20   4 3.20   4 3.20   8 3.20   8 3.20  10 3.21   9 3.21
                            16 3.21  15 3.21  14 3.21  13 3.21
   7  0.667  0.833  0.125-   3 3.20   3 3.20   1 3.20   1 3.20   5 3.20   5 3.20  12 3.21  11 3.21
                            14 3.21  13 3.21  16 3.21  15 3.21
   8  0.667  0.833  0.625-   4 3.20   4 3.20   2 3.20   2 3.20   6 3.20   6 3.20  12 3.21  11 3.21
                            14 3.21  13 3.21  16 3.21  15 3.21
   9  0.333  0.167  0.375-  13 3.20  13 3.20  15 3.20  15 3.20  11 3.20  11 3.20   5 3.21   6 3.21
                             3 3.21   4 3.21   1 3.21   2 3.21
  10  0.333  0.167  0.875-  14 3.20  14 3.20  16 3.20  16 3.20  12 3.20  12 3.20   5 3.21   6 3.21
                             3 3.21   4 3.21   1 3.21   2 3.21
  11  0.333  0.667  0.375-  15 3.20  15 3.20  13 3.20  13 3.20   9 3.20   9 3.20   7 3.21   8 3.21
                             1 3.21   2 3.21   3 3.21   4 3.21
  12  0.333  0.667  0.875-  16 3.20  16 3.20  14 3.20  14 3.20  10 3.20  10 3.20   7 3.21   8 3.21
                             1 3.21   2 3.21   3 3.21   4 3.21
  13  0.833  0.167  0.375-   9 3.20   9 3.20  11 3.20  11 3.20  15 3.20  15 3.20   1 3.21   2 3.21
                             7 3.21   8 3.21   5 3.21   6 3.21
  14  0.833  0.167  0.875-  10 3.20  10 3.20  12 3.20  12 3.20  16 3.20  16 3.20   1 3.21   2 3.21
                             7 3.21   8 3.21   5 3.21   6 3.21
  15  0.833  0.667  0.375-  11 3.20  11 3.20   9 3.20   9 3.20  13 3.20  13 3.20   3 3.21   4 3.21
                             5 3.21   6 3.21   7 3.21   8 3.21
  16  0.833  0.667  0.875-  12 3.20  12 3.20  10 3.20  10 3.20  14 3.20  14 3.20   3 3.21   4 3.21
                             5 3.21   6 3.21   7 3.21   8 3.21

  LATTYP: Found a hexagonal cell.
 ALAT       =     6.4069562771
 C/A-ratio  =     1.6394574742
  
  Lattice vectors:
  
 A1 = (   6.4069541107,  -0.0000000258,   0.0000000000)
 A2 = (  -3.2034806952,   5.5485896495,   0.0000000000)
 A3 = (   0.0000000000,   0.0000000000,  10.5039323555)


Analysis of symmetry for initial positions (statically):
=====================================================================
 Subroutine PRICEL returns following result:
 
  LATTYP: Found a hexagonal cell.
 ALAT       =     3.2034780905
 C/A-ratio  =     1.6394574988
  
  Lattice vectors:
  
 A1 = (   3.2034769593,  -0.0000000129,   0.0000000000)
 A2 = (  -1.6017403476,   2.7742948247,   0.0000000000)
 A3 = (   0.0000000000,   0.0000000000,   5.2519661778)
 
   8 primitive cells build up your supercell.
 

 Routine SETGRP: Setting up the symmetry group for a 
 hexagonal supercell.


 Subroutine GETGRP returns: Found 24 space group operations
 (whereof 12 operations were pure point group operations)
 out of a pool of 24 trial point group operations.


The static configuration has the point symmetry D_3d.
 The point group associated with its full space group is D_6h.


Analysis of symmetry for dynamics (positions and initial velocities):
=====================================================================
 Subroutine PRICEL returns following result:
 
  LATTYP: Found a hexagonal cell.
 ALAT       =     3.2034780905
 C/A-ratio  =     1.6394574988
  
  Lattice vectors:
  
 A1 = (   3.2034769593,  -0.0000000129,   0.0000000000)
 A2 = (  -1.6017403476,   2.7742948247,   0.0000000000)
 A3 = (   0.0000000000,   0.0000000000,   5.2519661778)
 
   8 primitive cells build up your supercell.
 

 Routine SETGRP: Setting up the symmetry group for a 
 hexagonal supercell.


 Subroutine GETGRP returns: Found 24 space group operations
 (whereof 12 operations were pure point group operations)
 out of a pool of 24 trial point group operations.


The dynamic configuration has the point symmetry D_3d.
 The point group associated with its full space group is D_6h.


 KPOINTS: Automatic                               

Automatic generation of k-mesh.
Space group operators:
 irot       det(A)        alpha          n_x          n_y          n_z        tau_x        tau_y        tau_z
    1     1.000000     0.000000     1.000000     0.000000     0.000000     0.000000     0.000000     0.000000
    2    -1.000000     0.000000     1.000000     0.000000     0.000000     0.000000     0.000000     0.000000
    3     1.000000   120.000000     0.000000     0.000000    -1.000000     0.000000     0.000000     0.000000
    4    -1.000000   120.000000     0.000000     0.000000    -1.000000     0.000000     0.000000     0.000000
    5     1.000000   120.000000     0.000000     0.000000     1.000000     0.000000     0.000000     0.000000
    6    -1.000000   120.000000     0.000000     0.000000     1.000000     0.000000     0.000000     0.000000
    7     1.000000   179.999999     1.000000     0.000001     0.000000     0.000000     0.000000     0.000000
    8    -1.000000   179.999999     1.000000     0.000001     0.000000     0.000000     0.000000     0.000000
    9     1.000000   180.000000     0.500000    -0.866025     0.000000     0.000000     0.000000     0.000000
   10    -1.000000   180.000000     0.500000    -0.866025     0.000000     0.000000     0.000000     0.000000
   11     1.000000   180.000000    -0.500000    -0.866025     0.000000     0.000000     0.000000     0.000000
   12    -1.000000   180.000000    -0.500000    -0.866025     0.000000     0.000000     0.000000     0.000000
   13     1.000000    60.000000     0.000000     0.000000    -1.000000     0.000000     0.000000     0.250000
   14    -1.000000    60.000000     0.000000     0.000000    -1.000000     0.000000     0.000000     0.250000
   15     1.000000   180.000000     0.000000     0.000000     1.000000     0.000000     0.000000     0.250000
   16    -1.000000   180.000000     0.000000     0.000000     1.000000     0.000000     0.000000     0.250000
   17     1.000000    60.000000     0.000000     0.000000     1.000000     0.000000     0.000000     0.250000
   18    -1.000000    60.000000     0.000000     0.000000     1.000000     0.000000     0.000000     0.250000
   19     1.000000   180.000000     0.866026    -0.499999     0.000000     0.000000     0.000000     0.250000
   20    -1.000000   180.000000     0.866026    -0.499999     0.000000     0.000000     0.000000     0.250000
   21     1.000000   180.000000    -0.000000    -1.000000     0.000000     0.000000     0.000000     0.250000
   22    -1.000000   180.000000    -0.000000    -1.000000     0.000000     0.000000     0.000000     0.250000
   23     1.000000   180.000000     0.866025     0.500000     0.000000     0.000000     0.000000     0.250000
   24    -1.000000   180.000000     0.866025     0.500000     0.000000     0.000000     0.000000     0.250000
 
 Subroutine IBZKPT returns following result:
 ===========================================
 
 Found     30 irreducible k-points:
 
 Following reciprocal coordinates:
            Coordinates               Weight
  0.000000  0.000000  0.000000      1.000000
  0.125000  0.000000  0.000000      6.000000
  0.250000  0.000000  0.000000      6.000000
  0.375000  0.000000  0.000000      6.000000
  0.500000  0.000000  0.000000      3.000000
  0.125000  0.125000  0.000000      6.000000
  0.250000  0.125000  0.000000     12.000000
  0.375000  0.125000  0.000000     12.000000
  0.250000  0.250000  0.000000      6.000000
  0.375000  0.250000  0.000000      6.000000
  0.000000  0.000000  0.250000      2.000000
  0.125000  0.000000  0.250000     12.000000
  0.250000  0.000000  0.250000     12.000000
  0.375000  0.000000  0.250000     12.000000
  0.500000  0.000000  0.250000      6.000000
  0.125000  0.125000  0.250000     12.000000
  0.250000  0.125000  0.250000     24.000000
  0.375000  0.125000  0.250000     24.000000
  0.250000  0.250000  0.250000     12.000000
  0.375000  0.250000  0.250000     12.000000
  0.000000  0.000000  0.500000      1.000000
  0.125000  0.000000  0.500000      6.000000
  0.250000  0.000000  0.500000      6.000000
  0.375000  0.000000  0.500000      6.000000
  0.500000  0.000000  0.500000      3.000000
  0.125000  0.125000  0.500000      6.000000
  0.250000  0.125000  0.500000     12.000000
  0.375000  0.125000  0.500000     12.000000
  0.250000  0.250000  0.500000      6.000000
  0.375000  0.250000  0.500000      6.000000
 
 Following cartesian coordinates:
            Coordinates               Weight
  0.000000  0.000000  0.000000      1.000000
  0.019510  0.011264  0.000000      6.000000
  0.039020  0.022528  0.000000      6.000000
  0.058530  0.033792  0.000000      6.000000
  0.078040  0.045057  0.000000      3.000000
  0.019510  0.033792  0.000000      6.000000
  0.039020  0.045057  0.000000     12.000000
  0.058530  0.056321  0.000000     12.000000
  0.039020  0.067585  0.000000      6.000000
  0.058530  0.078849  0.000000      6.000000
  0.000000  0.000000  0.023801      2.000000
  0.019510  0.011264  0.023801     12.000000
  0.039020  0.022528  0.023801     12.000000
  0.058530  0.033792  0.023801     12.000000
  0.078040  0.045057  0.023801      6.000000
  0.019510  0.033792  0.023801     12.000000
  0.039020  0.045057  0.023801     24.000000
  0.058530  0.056321  0.023801     24.000000
  0.039020  0.067585  0.023801     12.000000
  0.058530  0.078849  0.023801     12.000000
  0.000000  0.000000  0.047601      1.000000
  0.019510  0.011264  0.047601      6.000000
  0.039020  0.022528  0.047601      6.000000
  0.058530  0.033792  0.047601      6.000000
  0.078040  0.045057  0.047601      3.000000
  0.019510  0.033792  0.047601      6.000000
  0.039020  0.045057  0.047601     12.000000
  0.058530  0.056321  0.047601     12.000000
  0.039020  0.067585  0.047601      6.000000
  0.058530  0.078849  0.047601      6.000000
 


--------------------------------------------------------------------------------------------------------




 Dimension of arrays:
   k-points           NKPTS =     30   k-points in BZ     NKDIM =     30   number of bands    NBANDS=     26
   number of dos      NEDOS =    301   number of ions     NIONS =     16
   non local maximal  LDIM  =      4   non local SUM 2l+1 LMDIM =      8
   total plane-waves  NPLWV =  72576
   max r-space proj   IRMAX =      1   max aug-charges    IRDMAX=   8455
   dimension x,y,z NGX =    36 NGY =   36 NGZ =   56
   dimension x,y,z NGXF=    72 NGYF=   72 NGZF=  112
   support grid    NGXF=    72 NGYF=   72 NGZF=  112
   ions per type =              16
 NGX,Y,Z   is equivalent  to a cutoff of   9.34,  9.34,  8.86 a.u.
 NGXF,Y,Z  is equivalent  to a cutoff of  18.68, 18.68, 17.73 a.u.


 I would recommend the setting:
   dimension x,y,z NGX =    33 NGY =   33 NGZ =   55
 SYSTEM =  Mg                                      
 POSCAR =  Mg                                      

 Startparameter for this run:
   NWRITE =      2    write-flag & timer
   PREC   = n         normal or accurate (medium, high low for compatibility)
   ISTART =      0    job   : 0-new  1-cont  2-samecut
   ICHARG =      2    charge: 1-file 2-atom 10-const
   ISPIN  =      1    spin polarized calculation?
   LNONCOLLINEAR =      F non collinear calculations
   LSORBIT =      F    spin-orbit coupling
   INIWAV =      1    electr: 0-lowe 1-rand  2-diag
   LASPH  =      F    aspherical Exc in radial PAW
   METAGGA=      F    non-selfconsistent MetaGGA calc.

 Electronic Relaxation 1
   ENCUT  =  450.0 eV  33.07 Ry    5.75 a.u.  11.08 11.08 18.17*2*pi/ulx,y,z
   ENINI  =  450.0     initial cutoff
   ENAUG  =  274.6 eV  augmentation charge cutoff
   NELM   =     40;   NELMIN=  4; NELMDL= -5     # of ELM steps 
   EDIFF  = 0.1E-05   stopping-criterion for ELM
   LREAL  =      F    real-space projection
   NLSPLINE    = F    spline interpolate recip. space projectors
   LCOMPAT=      F    compatible to vasp.4.4
   GGA_COMPAT  = T    GGA compatible to vasp.4.4-vasp.4.6
   LMAXPAW     = -100 max onsite density
   LMAXMIX     =    2 max onsite mixed and CHGCAR
   VOSKOWN=      0    Vosko Wilk Nusair interpolation
   ROPT   =    0.00000
 Ionic relaxation
   EDIFFG = -.1E-03   stopping-criterion for IOM
   NSW    =    100    number of steps for IOM
   NBLOCK =      1;   KBLOCK =    100    inner block; outer block 
   IBRION =      2    ionic relax: 0-MD 1-quasi-New 2-CG
   NFREE  =      1    steps in history (QN), initial steepest desc. (CG)
   ISIF   =      2    stress and relaxation
   IWAVPR =     11    prediction:  0-non 1-charg 2-wave 3-comb
   ISYM   =      2    0-nonsym 1-usesym 2-fastsym
   LCORR  =      T    Harris-Foulkes like correction to forces

   POTIM  = 0.3000    time-step for ionic-motion
   TEIN   =    0.0    initial temperature
   TEBEG  =    0.0;   TEEND  =   0.0 temperature during run
   SMASS  =  -3.00    Nose mass-parameter (am)
   estimated Nose-frequenzy (Omega)   =  0.10E-29 period in steps =****** mass=  -0.938E-27a.u.
   SCALEE = 1.0000    scale energy and forces
   NPACO  =    256;   APACO  = 16.0  distance and # of slots for P.C.
   PSTRESS=    0.0 pullay stress

  Mass of Ions in am
   POMASS =  24.30
  Ionic Valenz
   ZVAL   =   2.00
  Atomic Wigner-Seitz radii
   RWIGS  =  -1.00
  virtual crystal weights 
   VCA    =   1.00
   NELECT =      32.0000    total number of electrons
   NUPDOWN=      -1.0000    fix difference up-down

 DOS related values:
   EMIN   =  10.00;   EMAX   =-10.00  energy-range for DOS
   EFERMI =   0.00
   ISMEAR =    -1;   SIGMA  =   0.03  broadening in eV -4-tet -1-fermi 0-gaus

 Electronic relaxation 2 (details)
   IALGO  =     68    algorithm
   LDIAG  =      T    sub-space diagonalisation (order eigenvalues)
   LSUBROT=      F    optimize rotation matrix (better conditioning)
   TURBO    =      0    0=normal 1=particle mesh
   IRESTART =      0    0=no restart 2=restart with 2 vectors
   NREBOOT  =      0    no. of reboots
   NMIN     =      0    reboot dimension
   EREF     =   0.00    reference energy to select bands
   IMIX   =      4    mixing-type and parameters
     AMIX     =   0.40;   BMIX     =  1.00
     AMIX_MAG =   1.60;   BMIX_MAG =  1.00
     AMIN     =   0.10
     WC   =   100.;   INIMIX=   1;  MIXPRE=   1;  MAXMIX=  40

 Intra band minimization:
   WEIMIN = 0.0010     energy-eigenvalue tresh-hold
   EBREAK =  0.96E-08  absolut break condition
   DEPER  =   0.30     relativ break condition  

   TIME   =   0.40     timestep for ELM

  volume/ion in A,a.u.               =      23.34       157.49
  Fermi-wavevector in a.u.,A,eV,Ry     =   0.721765  1.363939  7.087893  0.520945
  Thomas-Fermi vector in A             =   1.811557

 Write flags
   LWAVE  =      F    write WAVECAR
   LCHARG =      F    write CHGCAR
   LVTOT  =      F    write LOCPOT, total local potential
   LVHAR  =      F    write LOCPOT, Hartree potential only
   LELF   =      F    write electronic localiz. function (ELF)
   LORBIT =      0    0 simple, 1 ext, 2 COOP (PROOUT)


 Dipole corrections
   LMONO  =      F    monopole corrections only (constant potential shift)
   LDIPOL =      F    correct potential (dipole corrections)
   IDIPOL =      0    1-x, 2-y, 3-z, 4-all directions 
   EPSILON=  1.0000000 bulk dielectric constant

 Exchange correlation treatment:
   GGA     =    91    GGA type
   LEXCH   =     7    internal setting for exchange type
   VOSKOWN=      0    Vosko Wilk Nusair interpolation
   LHFCALC =     F    Hartree Fock is set to
   LHFONE  =     F    Hartree Fock one center treatment
   AEXX    =    0.0000 exact exchange contribution

 Linear response parameters
   LEPSILON=     F    determine dielectric tensor
   LRPA    =     F    only Hartree local field effects (RPA)
   LNABLA  =     F    use nabla operator in PAW spheres
   LVEL    =     F    velocity operator in full k-point grid
   LINTERFAST=   F  fast interpolation
   KINTER  =     0    interpolate to denser k-point grid
   CSHIFT  =0.1000    complex shift for real part using Kramers Kronig
   OMEGAMAX=  -1.0    maximum frequency
   DEG_THRESHOLD= 0.2000000E-02 threshold for treating states as degnerate
   RTIME   =    0.100 relaxation time in fs

 Orbital magnetization related:
   ORBITALMAG=     F  switch on orbital magnetization
   LCHIMAG   =     F  perturbation theory with respect to B field
   DQ        =  0.001000  dq finite difference perturbation B field



--------------------------------------------------------------------------------------------------------


 conjugate gradient relaxation of ions
 charge density and potential will be updated during run
 non-spin polarized calculation
 RMM-DIIS sequential band-by-band and
  variant of blocked Davidson during initial phase
 perform sub-space diagonalisation
    before iterative eigenvector-optimisation
 modified Broyden-mixing scheme, WC =      100.0
 initial mixing is a Kerker type mixing with AMIX =  0.4000 and BMIX =      1.0000
 Hartree-type preconditioning will be used
 using additional bands           10
 reciprocal scheme for non local part
 use partial core corrections
 calculate Harris-corrections to forces   (improved forces if not selfconsistent)
 use gradient corrections 
 use of overlap-Matrix (Vanderbilt PP)
 Fermi-smearing in eV        SIGMA  =   0.03


--------------------------------------------------------------------------------------------------------


  energy-cutoff  :      450.00
  volume of cell :      373.41
      direct lattice vectors                 reciprocal lattice vectors
     6.406954111 -0.000000026  0.000000000     0.156080407  0.090113092 -0.000000000
    -3.203480695  5.548589649  0.000000000     0.000000001  0.180225979 -0.000000000
     0.000000000  0.000000000 10.503932356    -0.000000000 -0.000000000  0.095202441

  length of vectors
     6.406954111  6.406959939 10.503932356     0.180226143  0.180225979  0.095202441



 k-points in units of 2pi/SCALE and weight: Automatic                               
   0.00000000  0.00000000  0.00000000       0.004
   0.01951005  0.01126414  0.00000000       0.023
   0.03902010  0.02252827  0.00000000       0.023
   0.05853015  0.03379241  0.00000000       0.023
   0.07804020  0.04505655  0.00000000       0.012
   0.01951005  0.03379238  0.00000000       0.023
   0.03902010  0.04505652  0.00000000       0.047
   0.05853015  0.05632066  0.00000000       0.047
   0.03902010  0.06758477  0.00000000       0.023
   0.05853015  0.07884890  0.00000000       0.023
   0.00000000  0.00000000  0.02380061       0.008
   0.01951005  0.01126414  0.02380061       0.047
   0.03902010  0.02252827  0.02380061       0.047
   0.05853015  0.03379241  0.02380061       0.047
   0.07804020  0.04505655  0.02380061       0.023
   0.01951005  0.03379238  0.02380061       0.047
   0.03902010  0.04505652  0.02380061       0.094
   0.05853015  0.05632066  0.02380061       0.094
   0.03902010  0.06758477  0.02380061       0.047
   0.05853015  0.07884890  0.02380061       0.047
   0.00000000  0.00000000  0.04760122       0.004
   0.01951005  0.01126414  0.04760122       0.023
   0.03902010  0.02252827  0.04760122       0.023
   0.05853015  0.03379241  0.04760122       0.023
   0.07804020  0.04505655  0.04760122       0.012
   0.01951005  0.03379238  0.04760122       0.023
   0.03902010  0.04505652  0.04760122       0.047
   0.05853015  0.05632066  0.04760122       0.047
   0.03902010  0.06758477  0.04760122       0.023
   0.05853015  0.07884890  0.04760122       0.023

 k-points in reciprocal lattice and weights: Automatic                               
   0.00000000  0.00000000  0.00000000       0.004
   0.12500000  0.00000000  0.00000000       0.023
   0.25000000  0.00000000  0.00000000       0.023
   0.37500000  0.00000000  0.00000000       0.023
   0.50000000  0.00000000  0.00000000       0.012
   0.12500000  0.12500000  0.00000000       0.023
   0.25000000  0.12500000  0.00000000       0.047
   0.37500000  0.12500000  0.00000000       0.047
   0.25000000  0.25000000  0.00000000       0.023
   0.37500000  0.25000000  0.00000000       0.023
   0.00000000  0.00000000  0.25000000       0.008
   0.12500000  0.00000000  0.25000000       0.047
   0.25000000  0.00000000  0.25000000       0.047
   0.37500000  0.00000000  0.25000000       0.047
   0.50000000  0.00000000  0.25000000       0.023
   0.12500000  0.12500000  0.25000000       0.047
   0.25000000  0.12500000  0.25000000       0.094
   0.37500000  0.12500000  0.25000000       0.094
   0.25000000  0.25000000  0.25000000       0.047
   0.37500000  0.25000000  0.25000000       0.047
   0.00000000  0.00000000  0.50000000       0.004
   0.12500000  0.00000000  0.50000000       0.023
   0.25000000  0.00000000  0.50000000       0.023
   0.37500000  0.00000000  0.50000000       0.023
   0.50000000  0.00000000  0.50000000       0.012
   0.12500000  0.12500000  0.50000000       0.023
   0.25000000  0.12500000  0.50000000       0.047
   0.37500000  0.12500000  0.50000000       0.047
   0.25000000  0.25000000  0.50000000       0.023
   0.37500000  0.25000000  0.50000000       0.023

 position of ions in fractional coordinates (direct lattice) 
   0.16666649  0.33333349  0.12500000
   0.16666649  0.33333349  0.62500000
   0.16666649  0.83333349  0.12500000
   0.16666649  0.83333349  0.62500000
   0.66666651  0.33333349  0.12500000
   0.66666651  0.33333349  0.62500000
   0.66666651  0.83333349  0.12500000
   0.66666651  0.83333349  0.62500000
   0.33333349  0.16666649  0.37500000
   0.33333349  0.16666649  0.87500000
   0.33333349  0.66666651  0.37500000
   0.33333349  0.66666651  0.87500000
   0.83333349  0.16666649  0.37500000
   0.83333349  0.16666649  0.87500000
   0.83333349  0.66666651  0.37500000
   0.83333349  0.66666651  0.87500000

 position of ions in cartesian coordinates  (Angst):
  -0.00000283  1.84953076  1.31299154
  -0.00000283  1.84953076  6.56495772
  -1.60174318  4.62382558  1.31299154
  -1.60174318  4.62382558  6.56495772
   3.20347432  1.84953075  1.31299154
   3.20347432  1.84953075  6.56495772
   1.60173397  4.62382557  1.31299154
   1.60173397  4.62382557  6.56495772
   1.60173949  0.92476397  3.93897463
   1.60173949  0.92476397  9.19094081
  -0.00000090  3.69905888  3.93897463
  -0.00000090  3.69905888  9.19094081
   4.80521655  0.92476396  3.93897463
   4.80521655  0.92476396  9.19094081
   3.20347615  3.69905886  3.93897463
   3.20347615  3.69905886  9.19094081



--------------------------------------------------------------------------------------------------------


 k-point  1 :   0.0000 0.0000 0.0000  plane waves:    8053
 k-point  2 :   0.1250 0.0000 0.0000  plane waves:    8075
 k-point  3 :   0.2500 0.0000 0.0000  plane waves:    8063
 k-point  4 :   0.3750 0.0000 0.0000  plane waves:    8095
 k-point  5 :   0.5000 0.0000 0.0000  plane waves:    8100
 k-point  6 :   0.1250 0.1250 0.0000  plane waves:    8091
 k-point  7 :   0.2500 0.1250 0.0000  plane waves:    8105
 k-point  8 :   0.3750 0.1250 0.0000  plane waves:    8095
 k-point  9 :   0.2500 0.2500 0.0000  plane waves:    8115
 k-point 10 :   0.3750 0.2500 0.0000  plane waves:    8087
 k-point 11 :   0.0000 0.0000 0.2500  plane waves:    8094
 k-point 12 :   0.1250 0.0000 0.2500  plane waves:    8071
 k-point 13 :   0.2500 0.0000 0.2500  plane waves:    8082
 k-point 14 :   0.3750 0.0000 0.2500  plane waves:    8091
 k-point 15 :   0.5000 0.0000 0.2500  plane waves:    8098
 k-point 16 :   0.1250 0.1250 0.2500  plane waves:    8092
 k-point 17 :   0.2500 0.1250 0.2500  plane waves:    8100
 k-point 18 :   0.3750 0.1250 0.2500  plane waves:    8096
 k-point 19 :   0.2500 0.2500 0.2500  plane waves:    8106
 k-point 20 :   0.3750 0.2500 0.2500  plane waves:    8112
 k-point 21 :   0.0000 0.0000 0.5000  plane waves:    8040
 k-point 22 :   0.1250 0.0000 0.5000  plane waves:    8068
 k-point 23 :   0.2500 0.0000 0.5000  plane waves:    8100
 k-point 24 :   0.3750 0.0000 0.5000  plane waves:    8112
 k-point 25 :   0.5000 0.0000 0.5000  plane waves:    8116
 k-point 26 :   0.1250 0.1250 0.5000  plane waves:    8080
 k-point 27 :   0.2500 0.1250 0.5000  plane waves:    8096
 k-point 28 :   0.3750 0.1250 0.5000  plane waves:    8106
 k-point 29 :   0.2500 0.2500 0.5000  plane waves:    8102
 k-point 30 :   0.3750 0.2500 0.5000  plane waves:    8108

 maximum and minimum number of plane-waves per node :       701      651

 maximum number of plane-waves:      8116
 maximum index in each direction: 
   IXMAX=   11   IYMAX=   11   IZMAX=   18
   IXMIN=  -11   IYMIN=  -11   IZMIN=  -18

 WARNING: aliasing errors must be expected set NGX to  46 to avoid them
 WARNING: aliasing errors must be expected set NGY to  46 to avoid them
 WARNING: aliasing errors must be expected set NGZ to  74 to avoid them
 aliasing errors are usually negligible using standard VASP settings
 and one can safely disregard these warnings

 parallel 3D FFT for wavefunctions:
    minimum data exchange during FFTs selected (reduces bandwidth)
 parallel 3D FFT for charge:
    minimum data exchange during FFTs selected (reduces bandwidth)


 total amount of memory used by VASP on root node    38450. kBytes
========================================================================

   base      :      30000. kBytes
   nonl-proj :       1527. kBytes
   fftplans  :       1019. kBytes
   grid      :       1418. kBytes
   one-center:          6. kBytes
   wavefun   :       4480. kBytes

     INWAV:  cpu time    0.00: real time    0.00
 Broyden mixing: mesh for mixing (old mesh)
   NGX = 23   NGY = 23   NGZ = 37
  (NGX  = 72   NGY  = 72   NGZ  =112)
  gives a total of  19573 points

 initial charge density was supplied:
 charge density of overlapping atoms calculated
 number of electron      32.0000000 magnetization 
 keeping initial charge density in first step


--------------------------------------------------------------------------------------------------------


 Maximum index for augmentation-charges          431 (set IRDMAX)


--------------------------------------------------------------------------------------------------------


 First call to EWALD:  gamma=   0.246
 Maximum number of real-space cells 3x 3x 2
 Maximum number of reciprocal cells 2x 2x 4

 FEWALD executed in parallel
    FEWALD:  cpu time    0.00: real time    0.00


----------------------------------------- Iteration    1(   1)  ---------------------------------------


    POTLOK:  cpu time    0.03: real time    0.03
    SETDIJ:  cpu time    0.00: real time    0.00
     EDDAV:  cpu time    0.28: real time    0.27
       DOS:  cpu time    0.00: real time    0.00
    --------------------------------------------
      LOOP:  cpu time    0.31: real time    0.31

 eigenvalue-minimisations  :  1560
 total energy-change (2. order) : 0.2683411E+02  (-0.8487417E+03)
 number of electron      32.0000000 magnetization 
 augmentation part       32.0000000 magnetization 

 Free energy of the ion-electron system (eV)
  ---------------------------------------------------
  alpha Z        PSCENC =       -11.84410087
  Ewald energy   TEWEN  =      -465.70002358
  -Hartree energ DENC   =        -0.48918805
  -exchange      EXHF   =         0.00000000
  -V(xc)+E(xc)   XCENC  =      -130.98588240
  PAW double counting   =       186.18586259       -8.88314254
  entropy T*S    EENTRO =        -0.00601162
  eigenvalues    EBANDS =        89.24117179
  atomic energy  EATOM  =       369.31542285
  ---------------------------------------------------
  free energy    TOTEN  =        26.83410816 eV

  energy without entropy =       26.84011978  energy(sigma->0) =       26.83711397


--------------------------------------------------------------------------------------------------------




----------------------------------------- Iteration    1(   2)  ---------------------------------------


     EDDAV:  cpu time    0.30: real time    0.30
       DOS:  cpu time    0.00: real time    0.00
    --------------------------------------------
      LOOP:  cpu time    0.30: real time    0.32

 eigenvalue-minimisations  :  1908
 total energy-change (2. order) :-0.4885066E+02  (-0.4547972E+02)
 number of electron      32.0000000 magnetization 
 augmentation part       32.0000000 magnetization 

 Free energy of the ion-electron system (eV)
  ---------------------------------------------------
  alpha Z        PSCENC =       -11.84410087
  Ewald energy   TEWEN  =      -465.70002358
  -Hartree energ DENC   =        -0.48918805
  -exchange      EXHF   =         0.00000000
  -V(xc)+E(xc)   XCENC  =      -130.98588240
  PAW double counting   =       186.18586259       -8.88314254
  entropy T*S    EENTRO =        -0.01448450
  eigenvalues    EBANDS =        40.39898178
  atomic energy  EATOM  =       369.31542285
  ---------------------------------------------------
  free energy    TOTEN  =       -22.01655473 eV

  energy without entropy =      -22.00207023  energy(sigma->0) =      -22.00931248


--------------------------------------------------------------------------------------------------------




----------------------------------------- Iteration    1(   3)  ---------------------------------------


     EDDAV:  cpu time    0.30: real time    0.30
       DOS:  cpu time    0.00: real time    0.00
    --------------------------------------------
      LOOP:  cpu time    0.30: real time    0.32

 eigenvalue-minimisations  :  1938
 total energy-change (2. order) :-0.2259053E+01  (-0.2175121E+01)
 number of electron      32.0000000 magnetization 
 augmentation part       32.0000000 magnetization 

 Free energy of the ion-electron system (eV)
  ---------------------------------------------------
  alpha Z        PSCENC =       -11.84410087
  Ewald energy   TEWEN  =      -465.70002358
  -Hartree energ DENC   =        -0.48918805
  -exchange      EXHF   =         0.00000000
  -V(xc)+E(xc)   XCENC  =      -130.98588240
  PAW double counting   =       186.18586259       -8.88314254
  entropy T*S    EENTRO =        -0.01608162
  eigenvalues    EBANDS =        38.14152617
  atomic energy  EATOM  =       369.31542285
  ---------------------------------------------------
  free energy    TOTEN  =       -24.27560746 eV

  energy without entropy =      -24.25952584  energy(sigma->0) =      -24.26756665


--------------------------------------------------------------------------------------------------------




----------------------------------------- Iteration    1(   4)  ---------------------------------------


     EDDAV:  cpu time    0.34: real time    0.34
       DOS:  cpu time    0.00: real time    0.00
    --------------------------------------------
      LOOP:  cpu time    0.34: real time    0.36

 eigenvalue-minimisations  :  2056
 total energy-change (2. order) :-0.5877605E-01  (-0.5715989E-01)
 number of electron      32.0000000 magnetization 
 augmentation part       32.0000000 magnetization 

 Free energy of the ion-electron system (eV)
  ---------------------------------------------------
  alpha Z        PSCENC =       -11.84410087
  Ewald energy   TEWEN  =      -465.70002358
  -Hartree energ DENC   =        -0.48918805
  -exchange      EXHF   =         0.00000000
  -V(xc)+E(xc)   XCENC  =      -130.98588240
  PAW double counting   =       186.18586259       -8.88314254
  entropy T*S    EENTRO =        -0.01639538
  eigenvalues    EBANDS =        38.08306389
  atomic energy  EATOM  =       369.31542285
  ---------------------------------------------------
  free energy    TOTEN  =       -24.33438351 eV

  energy without entropy =      -24.31798813  energy(sigma->0) =      -24.32618582


--------------------------------------------------------------------------------------------------------




----------------------------------------- Iteration    1(   5)  ---------------------------------------


     EDDAV:  cpu time    0.32: real time    0.32
       DOS:  cpu time    0.00: real time    0.00
    CHARGE:  cpu time    0.05: real time    0.05
    MIXING:  cpu time    0.00: real time    0.00
    --------------------------------------------
      LOOP:  cpu time    0.38: real time    0.39

 eigenvalue-minimisations  :  2138
 total energy-change (2. order) :-0.1816453E-02  (-0.1815639E-02)
 number of electron      32.0000000 magnetization 
 augmentation part        0.0950023 magnetization 

 Broyden mixing:
  rms(total) = 0.27439E+00    rms(broyden)= 0.27439E+00
  rms(prec ) = 0.36171E+00
  weight for this iteration     100.00

 Free energy of the ion-electron system (eV)
  ---------------------------------------------------
  alpha Z        PSCENC =       -11.84410087
  Ewald energy   TEWEN  =      -465.70002358
  -Hartree energ DENC   =        -0.48918805
  -exchange      EXHF   =         0.00000000
  -V(xc)+E(xc)   XCENC  =      -130.98588240
  PAW double counting   =       186.18586259       -8.88314254
  entropy T*S    EENTRO =        -0.01637696
  eigenvalues    EBANDS =        38.08122901
  atomic energy  EATOM  =       369.31542285
  ---------------------------------------------------
  free energy    TOTEN  =       -24.33619996 eV

  energy without entropy =      -24.31982301  energy(sigma->0) =      -24.32801148


--------------------------------------------------------------------------------------------------------




----------------------------------------- Iteration    1(   6)  ---------------------------------------


    POTLOK:  cpu time    0.02: real time    0.02
    SETDIJ:  cpu time    0.00: real time    0.00
    EDDIAG:  cpu time    0.06: real time    0.06
  RMM-DIIS:  cpu time    0.19: real time    0.19
    ORTHCH:  cpu time    0.00: real time    0.00
       DOS:  cpu time    0.00: real time    0.00
    CHARGE:  cpu time    0.04: real time    0.05
    MIXING:  cpu time    0.00: real time    0.00
    --------------------------------------------
      LOOP:  cpu time    0.32: real time    0.34

 eigenvalue-minimisations  :  1560
 total energy-change (2. order) : 0.2601846E-02  (-0.8169041E-03)
 number of electron      32.0000000 magnetization 
 augmentation part        0.0945111 magnetization 

 Broyden mixing:
  rms(total) = 0.17576E+00    rms(broyden)= 0.17576E+00
  rms(prec ) = 0.23380E+00
  weight for this iteration     100.00

 eigenvalues of (default mixing * dielectric matrix)
  average eigenvalue GAMMA=   2.7530
  2.7530

 Free energy of the ion-electron system (eV)
  ---------------------------------------------------
  alpha Z        PSCENC =       -11.84410087
  Ewald energy   TEWEN  =      -465.70002358
  -Hartree energ DENC   =        -0.44983916
  -exchange      EXHF   =         0.00000000
  -V(xc)+E(xc)   XCENC  =      -130.59338687
  PAW double counting   =       185.66931595       -8.33974312
  entropy T*S    EENTRO =        -0.01662700
  eigenvalues    EBANDS =        37.62538369
  atomic energy  EATOM  =       369.31542285
  ---------------------------------------------------
  free energy    TOTEN  =       -24.33359812 eV

  energy without entropy =      -24.31697112  energy(sigma->0) =      -24.32528462


--------------------------------------------------------------------------------------------------------




----------------------------------------- Iteration    1(   7)  ---------------------------------------


    POTLOK:  cpu time    0.02: real time    0.02
    SETDIJ:  cpu time    0.00: real time    0.00
    EDDIAG:  cpu time    0.06: real time    0.06
  RMM-DIIS:  cpu time    0.19: real time    0.19
    ORTHCH:  cpu time    0.00: real time    0.00
       DOS:  cpu time    0.00: real time    0.00
    CHARGE:  cpu time    0.05: real time    0.04
    MIXING:  cpu time    0.00: real time    0.00
    --------------------------------------------
      LOOP:  cpu time    0.32: real time    0.33

 eigenvalue-minimisations  :  1560
 total energy-change (2. order) :-0.2432957E-02  (-0.3079481E-02)
 number of electron      32.0000000 magnetization 
 augmentation part        0.0942319 magnetization 

 Broyden mixing:
  rms(total) = 0.11686E-01    rms(broyden)= 0.11686E-01
  rms(prec ) = 0.13210E-01
  weight for this iteration     100.00

 eigenvalues of (default mixing * dielectric matrix)
  average eigenvalue GAMMA=   2.4967
  2.1336  2.8599

 Free energy of the ion-electron system (eV)
  ---------------------------------------------------
  alpha Z        PSCENC =       -11.84410087
  Ewald energy   TEWEN  =      -465.70002358
  -Hartree energ DENC   =        -0.85675581
  -exchange      EXHF   =         0.00000000
  -V(xc)+E(xc)   XCENC  =      -129.64704488
  PAW double counting   =       184.85202592       -7.48110343
  entropy T*S    EENTRO =        -0.01692549
  eigenvalues    EBANDS =        37.04247422
  atomic energy  EATOM  =       369.31542285
  ---------------------------------------------------
  free energy    TOTEN  =       -24.33603107 eV

  energy without entropy =      -24.31910558  energy(sigma->0) =      -24.32756833


--------------------------------------------------------------------------------------------------------




----------------------------------------- Iteration    1(   8)  ---------------------------------------


    POTLOK:  cpu time    0.02: real time    0.02
    SETDIJ:  cpu time    0.00: real time    0.00
    EDDIAG:  cpu time    0.06: real time    0.06
  RMM-DIIS:  cpu time    0.19: real time    0.19
    ORTHCH:  cpu time    0.00: real time    0.00
       DOS:  cpu time    0.00: real time    0.00
    CHARGE:  cpu time    0.05: real time    0.04
    MIXING:  cpu time    0.00: real time    0.00
    --------------------------------------------
      LOOP:  cpu time    0.32: real time    0.33

 eigenvalue-minimisations  :  1563
 total energy-change (2. order) : 0.1514859E-03  (-0.3107511E-04)
 number of electron      32.0000000 magnetization 
 augmentation part        0.0943104 magnetization 

 Broyden mixing:
  rms(total) = 0.34716E-02    rms(broyden)= 0.34715E-02
  rms(prec ) = 0.36615E-02
  weight for this iteration     100.00

 eigenvalues of (default mixing * dielectric matrix)
  average eigenvalue GAMMA=   2.1396
  0.9978  2.8580  2.5631

 Free energy of the ion-electron system (eV)
  ---------------------------------------------------
  alpha Z        PSCENC =       -11.84410087
  Ewald energy   TEWEN  =      -465.70002358
  -Hartree energ DENC   =        -0.88623398
  -exchange      EXHF   =         0.00000000
  -V(xc)+E(xc)   XCENC  =      -129.60590241
  PAW double counting   =       184.92138054       -7.55555079
  entropy T*S    EENTRO =        -0.01691495
  eigenvalues    EBANDS =        37.03604361
  atomic energy  EATOM  =       369.31542285
  ---------------------------------------------------
  free energy    TOTEN  =       -24.33587959 eV

  energy without entropy =      -24.31896464  energy(sigma->0) =      -24.32742211


--------------------------------------------------------------------------------------------------------




----------------------------------------- Iteration    1(   9)  ---------------------------------------


    POTLOK:  cpu time    0.02: real time    0.02
    SETDIJ:  cpu time    0.00: real time    0.00
    EDDIAG:  cpu time    0.06: real time    0.06
  RMM-DIIS:  cpu time    0.21: real time    0.21
    ORTHCH:  cpu time    0.00: real time    0.00
       DOS:  cpu time    0.00: real time    0.00
    CHARGE:  cpu time    0.05: real time    0.04
    MIXING:  cpu time    0.00: real time    0.00
    --------------------------------------------
      LOOP:  cpu time    0.34: real time    0.35

 eigenvalue-minimisations  :  1755
 total energy-change (2. order) :-0.1778708E-04  (-0.5246442E-05)
 number of electron      32.0000000 magnetization 
 augmentation part        0.0945792 magnetization 

 Broyden mixing:
  rms(total) = 0.18709E-03    rms(broyden)= 0.18708E-03
  rms(prec ) = 0.21755E-03
  weight for this iteration     100.00

 eigenvalues of (default mixing * dielectric matrix)
  average eigenvalue GAMMA=   2.1171
  1.0045  2.9046  2.5210  2.0383

 Free energy of the ion-electron system (eV)
  ---------------------------------------------------
  alpha Z        PSCENC =       -11.84410087
  Ewald energy   TEWEN  =      -465.70002358
  -Hartree energ DENC   =        -0.89070110
  -exchange      EXHF   =         0.00000000
  -V(xc)+E(xc)   XCENC  =      -129.60064767
  PAW double counting   =       184.95828075       -7.59533173
  entropy T*S    EENTRO =        -0.01691076
  eigenvalues    EBANDS =        37.03811473
  atomic energy  EATOM  =       369.31542285
  ---------------------------------------------------
  free energy    TOTEN  =       -24.33589737 eV

  energy without entropy =      -24.31898662  energy(sigma->0) =      -24.32744199


--------------------------------------------------------------------------------------------------------




----------------------------------------- Iteration    1(  10)  ---------------------------------------


    POTLOK:  cpu time    0.02: real time    0.02
    SETDIJ:  cpu time    0.00: real time    0.00
    EDDIAG:  cpu time    0.06: real time    0.06
  RMM-DIIS:  cpu time    0.16: real time    0.16
    ORTHCH:  cpu time    0.01: real time    0.00
       DOS:  cpu time    0.00: real time    0.00
    CHARGE:  cpu time    0.04: real time    0.04
    MIXING:  cpu time    0.00: real time    0.00
    --------------------------------------------
      LOOP:  cpu time    0.29: real time    0.30

 eigenvalue-minimisations  :  1271
 total energy-change (2. order) :-0.3879029E-05  (-0.3646085E-06)
 number of electron      32.0000000 magnetization 
 augmentation part        0.0946305 magnetization 

 Broyden mixing:
  rms(total) = 0.70467E-04    rms(broyden)= 0.70467E-04
  rms(prec ) = 0.88592E-04
  weight for this iteration     100.00

 eigenvalues of (default mixing * dielectric matrix)
  average eigenvalue GAMMA=   2.0406
  2.8078  2.8078  2.4963  1.0086  1.0827

 Free energy of the ion-electron system (eV)
  ---------------------------------------------------
  alpha Z        PSCENC =       -11.84410087
  Ewald energy   TEWEN  =      -465.70002358
  -Hartree energ DENC   =        -0.89116662
  -exchange      EXHF   =         0.00000000
  -V(xc)+E(xc)   XCENC  =      -129.59996371
  PAW double counting   =       184.96454171       -7.60239697
  entropy T*S    EENTRO =        -0.01691049
  eigenvalues    EBANDS =        37.03869643
  atomic energy  EATOM  =       369.31542285
  ---------------------------------------------------
  free energy    TOTEN  =       -24.33590125 eV

  energy without entropy =      -24.31899076  energy(sigma->0) =      -24.32744601


--------------------------------------------------------------------------------------------------------




----------------------------------------- Iteration    1(  11)  ---------------------------------------


    POTLOK:  cpu time    0.02: real time    0.02
    SETDIJ:  cpu time    0.00: real time    0.00
    EDDIAG:  cpu time    0.06: real time    0.06
  RMM-DIIS:  cpu time    0.13: real time    0.13
    ORTHCH:  cpu time    0.00: real time    0.00
       DOS:  cpu time    0.00: real time    0.00
    CHARGE:  cpu time    0.05: real time    0.04
    MIXING:  cpu time    0.00: real time    0.00
    --------------------------------------------
      LOOP:  cpu time    0.26: real time    0.27

 eigenvalue-minimisations  :   945
 total energy-change (2. order) :-0.1610492E-05  (-0.4582256E-07)
 number of electron      32.0000000 magnetization 
 augmentation part        0.0946411 magnetization 

 Broyden mixing:
  rms(total) = 0.13791E-04    rms(broyden)= 0.13791E-04
  rms(prec ) = 0.16747E-04
  weight for this iteration     100.00

 eigenvalues of (default mixing * dielectric matrix)
  average eigenvalue GAMMA=   2.0873
  1.0057  1.0057  2.9406  2.6543  2.6158  2.3018

 Free energy of the ion-electron system (eV)
  ---------------------------------------------------
  alpha Z        PSCENC =       -11.84410087
  Ewald energy   TEWEN  =      -465.70002358
  -Hartree energ DENC   =        -0.89095066
  -exchange      EXHF   =         0.00000000
  -V(xc)+E(xc)   XCENC  =      -129.60028519
  PAW double counting   =       184.96727990       -7.60544386
  entropy T*S    EENTRO =        -0.01691042
  eigenvalues    EBANDS =        37.03910897
  atomic energy  EATOM  =       369.31542285
  ---------------------------------------------------
  free energy    TOTEN  =       -24.33590286 eV

  energy without entropy =      -24.31899245  energy(sigma->0) =      -24.32744765


--------------------------------------------------------------------------------------------------------




----------------------------------------- Iteration    1(  12)  ---------------------------------------


    POTLOK:  cpu time    0.02: real time    0.02
    SETDIJ:  cpu time    0.00: real time    0.00
    EDDIAG:  cpu time    0.06: real time    0.06
  RMM-DIIS:  cpu time    0.12: real time    0.12
    ORTHCH:  cpu time    0.01: real time    0.01
       DOS:  cpu time    0.00: real time    0.01
    --------------------------------------------
      LOOP:  cpu time    0.22: real time    0.23

 eigenvalue-minimisations  :   853
 total energy-change (2. order) :-0.1333089E-06  (-0.1954470E-07)
 number of electron      32.0000000 magnetization 
 augmentation part        0.0946411 magnetization 

 Free energy of the ion-electron system (eV)
  ---------------------------------------------------
  alpha Z        PSCENC =       -11.84410087
  Ewald energy   TEWEN  =      -465.70002358
  -Hartree energ DENC   =        -0.89095477
  -exchange      EXHF   =         0.00000000
  -V(xc)+E(xc)   XCENC  =      -129.60027595
  PAW double counting   =       184.96735012       -7.60550658
  entropy T*S    EENTRO =        -0.01691042
  eigenvalues    EBANDS =        37.03909620
  atomic energy  EATOM  =       369.31542285
  ---------------------------------------------------
  free energy    TOTEN  =       -24.33590300 eV

  energy without entropy =      -24.31899258  energy(sigma->0) =      -24.32744779


--------------------------------------------------------------------------------------------------------




 average (electrostatic) potential at core
  the test charge radii are     1.0714
  (the norm of the test charge is              1.0000)
       1 -54.2654       2 -54.2654       3 -54.2654       4 -54.2654       5 -54.2654
       6 -54.2654       7 -54.2654       8 -54.2654       9 -54.2654      10 -54.2654
      11 -54.2654      12 -54.2654      13 -54.2654      14 -54.2654      15 -54.2654
      16 -54.2654



 E-fermi :   3.8896     XC(G=0):  -8.1607     alpha+bet : -8.7030


 k-point     1 :       0.0000    0.0000    0.0000
  band No.  band energies     occupation 
      1      -2.9899      2.00000
      2      -1.6315      2.00000
      3      -1.6315      2.00000
      4       1.7775      2.00000
      5       1.7775      2.00000
      6       1.7775      2.00000
      7       1.7893      2.00000
      8       1.7893      2.00000
      9       1.7893      2.00000
     10       2.1722      2.00000
     11       2.5273      2.00000
     12       2.7978      2.00000
     13       2.7978      2.00000
     14       2.7978      2.00000
     15       2.7978      2.00000
     16       2.7978      2.00000
     17       2.7978      2.00000
     18       3.4346      2.00000
     19       3.4346      2.00000
     20       3.4346      2.00000
     21       3.4346      2.00000
     22       3.4346      2.00000
     23       3.4346      2.00000
     24       6.4848      0.00000
     25       6.4850      0.00000
     26       6.4852      0.00000

 k-point     2 :       0.1250    0.0000    0.0000
  band No.  band energies     occupation 
      1      -2.9134      2.00000
      2      -1.5560      2.00000
      3      -1.5560      2.00000
      4       0.6895      2.00000
      5       1.2754      2.00000
      6       1.2754      2.00000
      7       1.9804      2.00000
      8       1.9804      2.00000
      9       2.2423      2.00000
     10       2.4291      2.00000
     11       2.4291      2.00000
     12       2.5244      2.00000
     13       2.5244      2.00000
     14       2.5244      2.00000
     15       2.5244      2.00000
     16       2.6020      2.00000
     17       2.9901      2.00000
     18       3.8481      1.68061
     19       3.8481      1.68061
     20       3.8481      1.68058
     21       3.8481      1.68058
     22       4.3844      0.00000
     23       4.3844      0.00000
     24       5.6075      0.00000
     25       6.1552      0.00000
     26       6.1667      0.00000

 k-point     3 :       0.2500    0.0000    0.0000
  band No.  band energies     occupation 
      1      -2.6842      2.00000
      2      -1.3299      2.00000
      3      -1.3299      2.00000
      4      -0.2722      2.00000
      5       0.9100      2.00000
      6       0.9100      2.00000
      7       1.0456      2.00000
      8       1.0456      2.00000
      9       2.1958      2.00000
     10       2.1958      2.00000
     11       2.1958      2.00000
     12       2.1958      2.00000
     13       2.4526      2.00000
     14       2.8248      2.00000
     15       3.2038      2.00000
     16       3.2038      2.00000
     17       4.1757      0.00002
     18       4.5937      0.00000
     19       4.5937      0.00000
     20       4.5937      0.00000
     21       4.5937      0.00000
     22       4.6988      0.00000
     23       5.5123      0.00000
     24       5.7142      0.00000
     25       5.7324      0.00000
     26       5.8177      0.00000

 k-point     4 :       0.3750    0.0000    0.0000
  band No.  band energies     occupation 
      1      -2.3033      2.00000
      2      -1.0944      2.00000
      3      -0.9542      2.00000
      4      -0.9542      2.00000
      5       0.2373      2.00000
      6       0.2373      2.00000
      7       0.6899      2.00000
      8       0.6899      2.00000
      9       1.9870      2.00000
     10       1.9870      2.00000
     11       1.9871      2.00000
     12       1.9871      2.00000
     13       2.8033      2.00000
     14       3.1906      2.00000
     15       3.9265      0.37203
     16       4.0855      0.00079
     17       4.0855      0.00079
     18       4.2506      0.00000
     19       5.4775      0.00000
     20       5.4775      0.00000
     21       5.4775      0.00000
     22       5.4775      0.00000
     23       5.6103      0.00000
     24       5.6103      0.00000
     25       5.8625      0.00000
     26       5.8631      0.00000

 k-point     5 :       0.5000    0.0000    0.0000
  band No.  band energies     occupation 
      1      -1.7725      2.00000
      2      -1.7725      2.00000
      3      -0.4309      2.00000
      4      -0.4309      2.00000
      5      -0.4309      2.00000
      6      -0.4309      2.00000
      7       0.6163      2.00000
      8       0.6163      2.00000
      9       1.9165      2.00000
     10       1.9165      2.00000
     11       1.9165      2.00000
     12       1.9165      2.00000
     13       3.2945      2.00000
     14       3.2945      2.00000
     15       3.6862      1.99941
     16       3.6862      1.99941
     17       4.8786      0.00000
     18       4.8786      0.00000
     19       5.2147      0.00000
     20       5.2147      0.00000
     21       5.5408      0.00000
     22       5.5408      0.00000
     23       6.1986      0.00000
     24       6.1986      0.00000
     25       6.1987      0.00000
     26       6.1990      0.00000

 k-point     6 :       0.1250    0.1250    0.0000
  band No.  band energies     occupation 
      1      -2.7605      2.00000
      2      -1.4052      2.00000
      3      -1.4052      2.00000
      4       0.2470      2.00000
      5       0.2471      2.00000
      6       1.5535      2.00000
      7       1.5535      2.00000
      8       1.5535      2.00000
      9       1.5535      2.00000
     10       1.9978      2.00000
     11       2.0041      2.00000
     12       2.3825      2.00000
     13       2.7508      2.00000
     14       3.0048      2.00000
     15       3.0048      2.00000
     16       3.6542      1.99984
     17       3.6542      1.99984
     18       3.6649      1.99975
     19       3.6649      1.99975
     20       5.0825      0.00000
     21       5.0825      0.00000
     22       5.0825      0.00000
     23       5.0825      0.00000
     24       5.1895      0.00000
     25       5.1895      0.00000
     26       5.8525      0.00000

 k-point     7 :       0.2500    0.1250    0.0000
  band No.  band energies     occupation 
      1      -2.4554      2.00000
      2      -1.1043      2.00000
      3      -1.1043      2.00000
      4      -0.6450      2.00000
      5      -0.0492      2.00000
      6       0.6796      2.00000
      7       0.6796      2.00000
      8       1.2647      2.00000
      9       1.2647      2.00000
     10       1.7128      2.00000
     11       2.6630      2.00000
     12       2.8596      2.00000
     13       2.9465      2.00000
     14       2.9465      2.00000
     15       3.0453      2.00000
     16       4.2695      0.00000
     17       4.2695      0.00000
     18       4.3479      0.00000
     19       4.3817      0.00000
     20       4.4706      0.00000
     21       4.9095      0.00000
     22       5.6419      0.00000
     23       5.6765      0.00000
     24       5.9135      0.00000
     25       5.9135      0.00000
     26       6.0412      0.00000

 k-point     8 :       0.3750    0.1250    0.0000
  band No.  band energies     occupation 
      1      -1.9996      2.00000
      2      -1.3952      2.00000
      3      -0.6548      2.00000
      4      -0.6548      2.00000
      5      -0.1978      2.00000
      6      -0.0590      2.00000
      7      -0.0590      2.00000
      8       1.1193      2.00000
      9       1.1193      2.00000
     10       1.5681      2.00000
     11       2.8334      2.00000
     12       2.8334      2.00000
     13       3.0839      2.00000
     14       3.4774      2.00000
     15       3.6456      1.99988
     16       3.8398      1.75986
     17       4.0217      0.01012
     18       4.7694      0.00000
     19       4.8431      0.00000
     20       4.9237      0.00000
     21       5.1518      0.00000
     22       5.1518      0.00000
     23       5.9374      0.00000
     24       6.4462      0.00000
     25       6.5476      0.00000
     26       6.5521      0.00000

 k-point     9 :       0.2500    0.2500    0.0000
  band No.  band energies     occupation 
      1      -2.0754      2.00000
      2      -0.8694      2.00000
      3      -0.8694      2.00000
      4      -0.7295      2.00000
      5      -0.7295      2.00000
      6       0.4589      2.00000
      7       0.4589      2.00000
      8       0.4589      2.00000
      9       0.4589      2.00000
     10       2.6479      2.00000
     11       2.6510      2.00000
     12       3.0138      2.00000
     13       3.4068      2.00000
     14       3.6161      1.99996
     15       3.6161      1.99996
     16       4.1373      0.00010
     17       4.1373      0.00010
     18       4.2761      0.00000
     19       4.2761      0.00000
     20       4.4488      0.00000
     21       4.4488      0.00000
     22       4.8732      0.00000
     23       6.3451      0.00000
     24       6.3451      0.00000
     25       6.4395      0.00000
     26       6.4395      0.00000

 k-point    10 :       0.3750    0.2500    0.0000
  band No.  band energies     occupation 
      1      -1.5459      2.00000
      2      -1.5459      2.00000
      3      -0.9443      2.00000
      4      -0.2075      2.00000
      5      -0.2075      2.00000
      6      -0.2075      2.00000
      7      -0.2075      2.00000
      8       0.3852      2.00000
      9       0.3852      2.00000
     10       2.5789      2.00000
     11       3.5052      2.00000
     12       3.5052      2.00000
     13       3.7015      1.99892
     14       3.7190      1.99783
     15       3.7421      1.99454
     16       3.7421      1.99454
     17       3.8952      0.88899
     18       3.8952      0.88897
     19       4.0671      0.00165
     20       4.4133      0.00000
     21       4.7784      0.00000
     22       4.7784      0.00000
     23       5.6096      0.00000
     24       5.6096      0.00000
     25       7.1306      0.00000
     26       7.4492      0.00000

 k-point    11 :       0.0000    0.0000    0.2500
  band No.  band energies     occupation 
      1      -2.9045      2.00000
      2      -2.2235      2.00000
      3      -0.8755      2.00000
      4       1.1096      2.00000
      5       1.8583      2.00000
      6       1.8583      2.00000
      7       1.8583      2.00000
      8       1.8674      2.00000
      9       1.8674      2.00000
     10       1.8675      2.00000
     11       2.4692      2.00000
     12       2.4692      2.00000
     13       2.4692      2.00000
     14       2.4766      2.00000
     15       2.4766      2.00000
     16       2.4766      2.00000
     17       3.7386      1.99526
     18       3.9044      0.71313
     19       3.9044      0.71309
     20       3.9044      0.71299
     21       3.9268      0.36814
     22       3.9269      0.36810
     23       3.9269      0.36801
     24       5.7333      0.00000
     25       5.7440      0.00000
     26       5.7710      0.00000

 k-point    12 :       0.1250    0.0000    0.2500
  band No.  band energies     occupation 
      1      -2.8280      2.00000
      2      -2.1476      2.00000
      3      -0.8006      2.00000
      4       0.7714      2.00000
      5       1.1827      2.00000
      6       1.3564      2.00000
      7       1.3564      2.00000
      8       1.4218      2.00000
      9       1.9950      2.00000
     10       1.9950      2.00000
     11       2.5050      2.00000
     12       2.5050      2.00000
     13       2.6625      2.00000
     14       2.9381      2.00000
     15       2.9381      2.00000
     16       3.0541      2.00000
     17       3.5967      1.99998
     18       3.5967      1.99998
     19       3.8099      1.92072
     20       3.8708      1.35936
     21       4.5261      0.00000
     22       4.5262      0.00000
     23       4.7294      0.00000
     24       5.0854      0.00000
     25       5.2668      0.00000
     26       5.2668      0.00000

 k-point    13 :       0.2500    0.0000    0.2500
  band No.  band energies     occupation 
      1      -2.5990      2.00000
      2      -1.9201      2.00000
      3      -0.5763      2.00000
      4      -0.1892      2.00000
      5       0.4720      2.00000
      6       0.9917      2.00000
      7       0.9917      2.00000
      8       1.4017      2.00000
      9       1.6398      2.00000
     10       1.6398      2.00000
     11       1.7746      2.00000
     12       2.8732      2.00000
     13       2.8732      2.00000
     14       3.2668      2.00000
     15       3.2668      2.00000
     16       3.6127      1.99997
     17       4.0230      0.00961
     18       4.0858      0.00078
     19       4.0858      0.00078
     20       4.5625      0.00000
     21       4.9308      0.00000
     22       4.9308      0.00000
     23       5.1634      0.00000
     24       5.2854      0.00000
     25       5.2854      0.00000
     26       6.4188      0.00000

 k-point    14 :       0.3750    0.0000    0.2500
  band No.  band energies     occupation 
      1      -2.2184      2.00000
      2      -1.5421      2.00000
      3      -1.0106      2.00000
      4      -0.3428      2.00000
      5      -0.2036      2.00000
      6       0.7719      2.00000
      7       0.7719      2.00000
      8       0.9772      2.00000
      9       1.4238      2.00000
     10       1.4238      2.00000
     11       1.7651      2.00000
     12       2.6963      2.00000
     13       2.6963      2.00000
     14       2.9083      2.00000
     15       4.0628      0.00196
     16       4.0628      0.00196
     17       4.3735      0.00000
     18       4.8151      0.00000
     19       4.8151      0.00000
     20       4.9555      0.00000
     21       4.9555      0.00000
     22       5.3062      0.00000
     23       6.1146      0.00000
     24       6.1150      0.00000
     25       6.3479      0.00000
     26       6.3950      0.00000

 k-point    15 :       0.5000    0.0000    0.2500
  band No.  band energies     occupation 
      1      -1.6881      2.00000
      2      -1.6881      2.00000
      3      -1.0155      2.00000
      4      -1.0155      2.00000
      5       0.3153      2.00000
      6       0.3153      2.00000
      7       0.6984      2.00000
      8       0.6984      2.00000
      9       1.3515      2.00000
     10       1.3515      2.00000
     11       2.2699      2.00000
     12       2.2699      2.00000
     13       2.6313      2.00000
     14       2.6313      2.00000
     15       4.3760      0.00000
     16       4.3760      0.00000
     17       4.8465      0.00000
     18       4.8465      0.00000
     19       5.2902      0.00000
     20       5.2902      0.00000
     21       5.4935      0.00000
     22       5.4935      0.00000
     23       5.8635      0.00000
     24       5.8635      0.00000
     25       6.0131      0.00000
     26       6.0131      0.00000

 k-point    16 :       0.1250    0.1250    0.2500
  band No.  band energies     occupation 
      1      -2.6753      2.00000
      2      -1.9958      2.00000
      3      -0.6510      2.00000
      4       0.3296      2.00000
      5       0.3296      2.00000
      6       0.9858      2.00000
      7       0.9858      2.00000
      8       1.3288      2.00000
      9       2.0780      2.00000
     10       2.0821      2.00000
     11       2.2701      2.00000
     12       2.2701      2.00000
     13       2.6813      2.00000
     14       2.6902      2.00000
     15       3.6493      1.99987
     16       3.6493      1.99987
     17       3.9522      0.15156
     18       4.1216      0.00019
     19       4.1327      0.00012
     20       4.4125      0.00000
     21       4.4125      0.00000
     22       4.5402      0.00000
     23       4.5403      0.00000
     24       5.7833      0.00000
     25       5.7911      0.00000
     26       5.8984      0.00000

 k-point    17 :       0.2500    0.1250    0.2500
  band No.  band energies     occupation 
      1      -2.3704      2.00000
      2      -1.6931      2.00000
      3      -0.5616      2.00000
      4      -0.3525      2.00000
      5       0.0336      2.00000
      6       0.1027      2.00000
      7       0.6929      2.00000
      8       1.4144      2.00000
      9       1.6200      2.00000
     10       1.7931      2.00000
     11       1.9910      2.00000
     12       2.4254      2.00000
     13       2.9343      2.00000
     14       3.3201      2.00000
     15       3.3508      2.00000
     16       3.8189      1.88825
     17       4.0263      0.00843
     18       4.2342      0.00000
     19       4.7752      0.00000
     20       4.9232      0.00000
     21       5.1562      0.00000
     22       5.3705      0.00000
     23       5.5685      0.00000
     24       5.9242      0.00000
     25       6.2028      0.00000
     26       6.3239      0.00000

 k-point    18 :       0.3750    0.1250    0.2500
  band No.  band energies     occupation 
      1      -1.9150      2.00000
      2      -1.3111      2.00000
      3      -1.2408      2.00000
      4      -0.6411      2.00000
      5      -0.1148      2.00000
      6       0.0933      2.00000
      7       0.5460      2.00000
      8       0.6839      2.00000
      9       1.6488      2.00000
     10       1.8491      2.00000
     11       2.0542      2.00000
     12       2.2882      2.00000
     13       2.6270      2.00000
     14       3.4893      2.00000
     15       3.7345      1.99597
     16       3.8989      0.81651
     17       4.6484      0.00000
     18       4.6962      0.00000
     19       4.9182      0.00000
     20       5.1580      0.00000
     21       5.5317      0.00000
     22       5.5718      0.00000
     23       5.7710      0.00000
     24       6.3187      0.00000
     25       6.3201      0.00000
     26       6.3258      0.00000

 k-point    19 :       0.2500    0.2500    0.2500
  band No.  band energies     occupation 
      1      -1.9908      2.00000
      2      -1.3160      2.00000
      3      -0.7858      2.00000
      4      -0.7858      2.00000
      5      -0.1197      2.00000
      6      -0.1197      2.00000
      7       0.0192      2.00000
      8       1.1966      2.00000
      9       1.1966      2.00000
     10       1.9821      2.00000
     11       2.7253      2.00000
     12       2.7290      2.00000
     13       3.1204      2.00000
     14       3.1204      2.00000
     15       3.3164      2.00000
     16       3.3168      2.00000
     17       4.5811      0.00000
     18       4.6147      0.00000
     19       4.7636      0.00000
     20       4.9167      0.00000
     21       5.5045      0.00000
     22       5.5045      0.00000
     23       6.0025      0.00000
     24       6.5147      0.00000
     25       6.5173      0.00000
     26       6.6123      0.00000

 k-point    20 :       0.3750    0.2500    0.2500
  band No.  band energies     occupation 
      1      -1.4617      2.00000
      2      -1.4617      2.00000
      3      -0.8607      2.00000
      4      -0.7907      2.00000
      5      -0.7907      2.00000
      6      -0.1940      2.00000
      7       0.5367      2.00000
      8       0.5367      2.00000
      9       1.1237      2.00000
     10       2.4851      2.00000
     11       2.4851      2.00000
     12       2.6573      2.00000
     13       3.0521      2.00000
     14       3.2665      2.00000
     15       3.7671      1.98523
     16       3.7956      1.95462
     17       4.0625      0.00198
     18       4.3827      0.00000
     19       5.0201      0.00000
     20       5.0480      0.00000
     21       5.0480      0.00000
     22       5.5298      0.00000
     23       5.9091      0.00000
     24       6.0760      0.00000
     25       6.6087      0.00000
     26       7.2063      0.00000

 k-point    21 :       0.0000    0.0000    0.5000
  band No.  band energies     occupation 
      1      -2.6486      2.00000
      2      -2.6486      2.00000
      3       0.0405      2.00000
      4       0.0405      2.00000
      5       2.0976      2.00000
      6       2.0976      2.00000
      7       2.0976      2.00000
      8       2.0976      2.00000
      9       2.0976      2.00000
     10       2.0976      2.00000
     11       2.0994      2.00000
     12       2.0994      2.00000
     13       2.0994      2.00000
     14       2.0994      2.00000
     15       2.0994      2.00000
     16       2.0994      2.00000
     17       4.7488      0.00000
     18       4.7488      0.00000
     19       4.7488      0.00000
     20       4.7488      0.00000
     21       4.7493      0.00000
     22       4.7528      0.00000
     23       4.7620      0.00000
     24       4.7620      0.00000
     25       4.7620      0.00000
     26       4.7620      0.00000

 k-point    22 :       0.1250    0.0000    0.5000
  band No.  band energies     occupation 
      1      -2.5723      2.00000
      2      -2.5723      2.00000
      3       0.1146      2.00000
      4       0.1146      2.00000
      5       1.0164      2.00000
      6       1.0164      2.00000
      7       1.5980      2.00000
      8       1.5980      2.00000
      9       1.5980      2.00000
     10       1.5980      2.00000
     11       2.7213      2.00000
     12       2.7213      2.00000
     13       2.7213      2.00000
     14       2.7213      2.00000
     15       3.1524      2.00000
     16       3.1524      2.00000
     17       3.8584      1.55401
     18       3.8584      1.55401
     19       4.2845      0.00000
     20       4.2845      0.00000
     21       4.2845      0.00000
     22       4.2845      0.00000
     23       5.3231      0.00000
     24       5.3280      0.00000
     25       5.3785      0.00000
     26       5.3786      0.00000

 k-point    23 :       0.2500    0.0000    0.5000
  band No.  band energies     occupation 
      1      -2.3438      2.00000
      2      -2.3438      2.00000
      3       0.0594      2.00000
      4       0.0594      2.00000
      5       0.3367      2.00000
      6       0.3367      2.00000
      7       1.2359      2.00000
      8       1.2359      2.00000
      9       1.2359      2.00000
     10       1.2359      2.00000
     11       2.6472      2.00000
     12       2.6472      2.00000
     13       3.3600      2.00000
     14       3.3600      2.00000
     15       3.3600      2.00000
     16       3.3600      2.00000
     17       4.0732      0.00130
     18       4.0732      0.00130
     19       4.0732      0.00130
     20       4.0732      0.00130
     21       4.7714      0.00000
     22       4.7714      0.00000
     23       5.5292      0.00000
     24       5.5292      0.00000
     25       6.1189      0.00000
     26       6.1189      0.00000

 k-point    24 :       0.3750    0.0000    0.5000
  band No.  band energies     occupation 
      1      -1.9642      2.00000
      2      -1.9642      2.00000
      3      -0.7596      2.00000
      4      -0.7596      2.00000
      5       0.7054      2.00000
      6       0.7054      2.00000
      7       1.0173      2.00000
      8       1.0173      2.00000
      9       1.0173      2.00000
     10       1.0173      2.00000
     11       1.8712      2.00000
     12       1.8712      2.00000
     13       3.5100      2.00000
     14       3.5100      2.00000
     15       3.5100      2.00000
     16       3.5100      2.00000
     17       4.6182      0.00000
     18       4.6182      0.00000
     19       4.6182      0.00000
     20       4.6182      0.00000
     21       5.8651      0.00000
     22       5.8651      0.00000
     23       6.1056      0.00000
     24       6.1057      0.00000
     25       6.5660      0.00000
     26       6.5660      0.00000

 k-point    25 :       0.5000    0.0000    0.5000
  band No.  band energies     occupation 
      1      -1.4353      2.00000
      2      -1.4353      2.00000
      3      -1.4353      2.00000
      4      -1.4353      2.00000
      5       0.9442      2.00000
      6       0.9442      2.00000
      7       0.9442      2.00000
      8       0.9442      2.00000
      9       1.2185      2.00000
     10       1.2185      2.00000
     11       1.2185      2.00000
     12       1.2185      2.00000
     13       3.4766      2.00000
     14       3.4766      2.00000
     15       3.4766      2.00000
     16       3.4766      2.00000
     17       5.5130      0.00000
     18       5.5130      0.00000
     19       5.5130      0.00000
     20       5.5130      0.00000
     21       5.6818      0.00000
     22       5.6818      0.00000
     23       5.6818      0.00000
     24       5.6818      0.00000
     25       6.2891      0.00000
     26       6.2891      0.00000

 k-point    26 :       0.1250    0.1250    0.5000
  band No.  band energies     occupation 
      1      -2.4199      2.00000
      2      -2.4199      2.00000
      3       0.2627      2.00000
      4       0.2627      2.00000
      5       0.5765      2.00000
      6       0.5765      2.00000
      7       0.5765      2.00000
      8       0.5765      2.00000
      9       2.3133      2.00000
     10       2.3133      2.00000
     11       2.3153      2.00000
     12       2.3153      2.00000
     13       3.0965      2.00000
     14       3.0965      2.00000
     15       3.0965      2.00000
     16       3.0965      2.00000
     17       4.1945      0.00001
     18       4.1945      0.00001
     19       4.1945      0.00001
     20       4.1945      0.00001
     21       4.9490      0.00000
     22       4.9490      0.00000
     23       4.9633      0.00000
     24       4.9633      0.00000
     25       5.4607      0.00000
     26       5.4607      0.00000

 k-point    27 :       0.2500    0.1250    0.5000
  band No.  band energies     occupation 
      1      -2.1159      2.00000
      2      -2.1159      2.00000
      3      -0.3119      2.00000
      4      -0.3119      2.00000
      5       0.2816      2.00000
      6       0.2816      2.00000
      7       0.5581      2.00000
      8       0.5581      2.00000
      9       2.0326      2.00000
     10       2.0326      2.00000
     11       2.3001      2.00000
     12       2.3001      2.00000
     13       2.8595      2.00000
     14       2.8595      2.00000
     15       3.1461      2.00000
     16       3.1461      2.00000
     17       4.6813      0.00000
     18       4.6813      0.00000
     19       4.9824      0.00000
     20       4.9824      0.00000
     21       5.5067      0.00000
     22       5.5067      0.00000
     23       5.7071      0.00000
     24       5.7071      0.00000
     25       5.7327      0.00000
     26       5.7327      0.00000

 k-point    28 :       0.3750    0.1250    0.5000
  band No.  band energies     occupation 
      1      -1.6616      2.00000
      2      -1.6616      2.00000
      3      -1.0593      2.00000
      4      -1.0593      2.00000
      5       0.1337      2.00000
      6       0.1337      2.00000
      7       0.9991      2.00000
      8       0.9991      2.00000
      9       1.5824      2.00000
     10       1.5824      2.00000
     11       1.8901      2.00000
     12       1.8901      2.00000
     13       2.7270      2.00000
     14       2.7270      2.00000
     15       3.9694      0.07892
     16       3.9694      0.07892
     17       4.6195      0.00000
     18       4.6195      0.00000
     19       5.4513      0.00000
     20       5.4513      0.00000
     21       5.9194      0.00000
     22       5.9194      0.00000
     23       6.1225      0.00000
     24       6.1225      0.00000
     25       6.4712      0.00000
     26       6.4772      0.00000

 k-point    29 :       0.2500    0.2500    0.5000
  band No.  band energies     occupation 
      1      -1.7372      2.00000
      2      -1.7372      2.00000
      3      -0.5354      2.00000
      4      -0.5354      2.00000
      5      -0.5354      2.00000
      6      -0.5354      2.00000
      7       0.9258      2.00000
      8       0.9258      2.00000
      9       2.0876      2.00000
     10       2.0876      2.00000
     11       2.0876      2.00000
     12       2.0876      2.00000
     13       2.9546      2.00000
     14       2.9546      2.00000
     15       2.9584      2.00000
     16       2.9584      2.00000
     17       4.9485      0.00000
     18       4.9485      0.00000
     19       5.5996      0.00000
     20       5.5996      0.00000
     21       6.0627      0.00000
     22       6.0643      0.00000
     23       6.0774      0.00000
     24       6.0786      0.00000
     25       6.3127      0.00000
     26       6.3127      0.00000

 k-point    30 :       0.3750    0.2500    0.5000
  band No.  band energies     occupation 
      1      -1.2095      2.00000
      2      -1.2095      2.00000
      3      -1.2095      2.00000
      4      -1.2095      2.00000
      5      -0.6101      2.00000
      6      -0.6101      2.00000
      7       1.4372      2.00000
      8       1.4372      2.00000
      9       1.4372      2.00000
     10       1.4372      2.00000
     11       2.0162      2.00000
     12       2.0162      2.00000
     13       2.8900      2.00000
     14       2.8900      2.00000
     15       3.9408      0.22907
     16       3.9408      0.22907
     17       4.0223      0.00988
     18       4.0223      0.00988
     19       5.6750      0.00000
     20       5.6750      0.00000
     21       6.4779      0.00000
     22       6.4780      0.00000
     23       6.4784      0.00000
     24       6.4804      0.00000
     25       6.6875      0.00000
     26       6.7345      0.00000


--------------------------------------------------------------------------------------------------------


 soft charge-density along one line, spin component           1
         0         1         2         3         4         5         6         7         8         9
 total charge-density along one line

 pseudopotential strength for first ion, spin component:           1
  3.574  -0.018  -0.000   0.000   0.000  -0.000   0.000   0.000
 -0.018  -0.008  -0.000   0.000   0.000   0.000  -0.000  -0.000
 -0.000  -0.000   0.712  -0.000   0.000  -0.026  -0.000   0.000
  0.000   0.000  -0.000   0.712  -0.000  -0.000  -0.026  -0.000
  0.000   0.000   0.000  -0.000   0.712   0.000  -0.000  -0.026
 -0.000   0.000  -0.026  -0.000   0.000  -0.038   0.000  -0.000
  0.000  -0.000  -0.000  -0.026  -0.000   0.000  -0.038   0.000
  0.000  -0.000   0.000  -0.000  -0.026  -0.000   0.000  -0.038
 total augmentation occupancy for first ion, spin component:           1
  1.125  -0.041   0.000  -0.000  -0.000   0.000   0.000  -0.000
 -0.041   0.002  -0.000   0.000   0.000   0.000  -0.000   0.000
  0.000  -0.000   0.727   0.000  -0.000   0.039  -0.000  -0.000
  0.000  -0.000   0.000   0.705  -0.000  -0.000   0.038   0.000
  0.000   0.000  -0.000  -0.000   0.727  -0.000   0.000   0.039
 -0.000  -0.000   0.039  -0.000  -0.000   0.002  -0.000  -0.000
 -0.000   0.000  -0.000   0.038  -0.000  -0.000   0.002   0.000
  0.000  -0.000  -0.000  -0.000   0.039  -0.000   0.000   0.002


------------------------ aborting loop because EDIFF is reached ----------------------------------------


    CHARGE:  cpu time    0.05: real time    0.05
    FORLOC:  cpu time    0.00: real time    0.00
    FORNL :  cpu time    0.10: real time    0.10
    STRESS:  cpu time    0.17: real time    0.17
    FORCOR:  cpu time    0.02: real time    0.02
    FORHAR:  cpu time    0.01: real time    0.01
    MIXING:  cpu time    0.00: real time    0.00
    OFIELD:  cpu time    0.00: real time    0.00

  FORCE on cell =-STRESS in cart. coord.  units (eV):
  Direction    XX          YY          ZZ          XY          YZ          ZX
  --------------------------------------------------------------------------------------
  Alpha Z   -11.84410   -11.84410   -11.84410
  Ewald    -155.07985  -155.07991  -155.54137     0.00009    -0.00000     0.00000
  Hartree     0.24623     0.24623     0.39849    -0.00000     0.00000     0.00000
  E(xc)     -72.96464   -72.96463   -72.82357     0.00000    -0.00000    -0.00000
  Local      12.70080    12.70079    13.45260    -0.00004     0.00000     0.00000
  n-local   126.14401   126.22107   125.20291    -0.80196     0.44485     0.04439
  augment     1.53931     1.53931     1.57237     0.00000     0.00000     0.00000
  Kinetic    96.66874    99.51784    97.18961   -18.56164     0.77110    -0.81798
  Fock        0.00000     0.00000     0.00000     0.00000     0.00000     0.00000
  -------------------------------------------------------------------------------------
  Total      -1.12646    -1.12646    -2.39307     0.00000     0.00000     0.00000
  in kB      -4.83327    -4.83327   -10.26785     0.00000     0.00000     0.00000
  external pressure =       -6.64 kB  Pullay stress =        0.00 kB


 VOLUME and BASIS-vectors are now :
 -----------------------------------------------------------------------------
  energy-cutoff  :      450.00
  volume of cell :      373.41
      direct lattice vectors                 reciprocal lattice vectors
     6.406954111 -0.000000026  0.000000000     0.156080407  0.090113092 -0.000000000
    -3.203480695  5.548589649  0.000000000     0.000000001  0.180225979 -0.000000000
     0.000000000  0.000000000 10.503932356    -0.000000000 -0.000000000  0.095202441

  length of vectors
     6.406954111  6.406959939 10.503932356     0.180226143  0.180225979  0.095202441


 FORCES acting on ions
    electron-ion (+dipol)            ewald-force                    non-local-force                 convergence-correction
 -----------------------------------------------------------------------------------------------
   -.209E-04 0.100E-04 0.422E-08   0.428E-05 0.912E-06 -.178E-14   0.884E-17 0.239E-17 -.105E-17   -.305E-08 -.348E-08 0.208E-13
   -.209E-04 0.100E-04 0.422E-08   0.428E-05 0.912E-06 0.000E+00   0.629E-17 0.336E-17 0.190E-18   -.305E-08 -.348E-08 -.216E-13
   -.209E-04 0.100E-04 0.422E-08   0.419E-05 0.515E-06 -.888E-15   0.580E-17 0.542E-18 -.154E-17   -.305E-08 -.506E-10 0.207E-13
   -.209E-04 0.100E-04 0.422E-08   0.419E-05 0.515E-06 0.888E-15   0.889E-17 0.358E-17 -.141E-17   -.305E-08 -.506E-10 -.216E-13
   -.197E-04 0.100E-04 0.422E-08   0.267E-05 0.161E-06 0.000E+00   0.699E-17 0.477E-17 0.169E-18   0.306E-08 0.476E-10 0.209E-13
   -.197E-04 0.100E-04 0.422E-08   0.267E-05 0.161E-06 0.178E-14   0.445E-17 -.542E-18 -.691E-18   0.306E-08 0.476E-10 -.217E-13
   -.197E-04 0.100E-04 0.422E-08   0.258E-05 -.236E-06 -.888E-15   0.710E-17 0.488E-17 -.501E-18   0.306E-08 0.348E-08 0.210E-13
   -.197E-04 0.100E-04 0.422E-08   0.258E-05 -.236E-06 0.888E-15   0.846E-17 0.488E-17 -.962E-18   0.306E-08 0.348E-08 -.218E-13
   0.194E-04 -.106E-04 0.422E-08   -.336E-05 0.681E-06 -.132E-14   -.363E-17 -.115E-16 -.257E-18   -.148E-08 -.438E-08 0.124E-13
   0.194E-04 -.106E-04 0.422E-08   -.336E-05 0.681E-06 0.137E-14   -.206E-17 -.347E-17 0.112E-17   -.148E-08 -.438E-08 -.135E-13
   0.189E-04 -.957E-05 0.422E-08   -.320E-05 -.109E-05 -.226E-14   -.163E-18 -.770E-17 -.136E-18   -.149E-08 0.267E-08 0.122E-13
   0.189E-04 -.957E-05 0.422E-08   -.320E-05 -.109E-05 0.435E-15   -.255E-17 -.542E-17 0.108E-18   -.149E-08 0.267E-08 -.134E-13
   0.194E-04 -.106E-04 0.422E-08   -.366E-05 0.410E-06 -.132E-14   -.542E-19 -.434E-17 -.664E-18   0.148E-08 -.267E-08 0.126E-13
   0.194E-04 -.106E-04 0.422E-08   -.366E-05 0.410E-06 0.137E-14   -.217E-18 -.173E-17 -.671E-18   0.148E-08 -.267E-08 -.137E-13
   0.189E-04 -.957E-05 0.422E-08   -.350E-05 -.136E-05 -.138E-14   -.634E-17 -.640E-17 -.102E-17   0.148E-08 0.439E-08 0.125E-13
   0.189E-04 -.957E-05 0.422E-08   -.350E-05 -.136E-05 0.132E-14   0.114E-17 -.195E-17 0.542E-19   0.148E-08 0.439E-08 -.136E-13
 -----------------------------------------------------------------------------------------------
   -.928E-05 -.294E-06 0.676E-07   0.149E-14 0.118E-14 -.178E-14   0.429E-16 -.186E-16 -.726E-17   0.382E-11 -.149E-11 -.784E-14


 POSITION                                       TOTAL-FORCE (eV/Angst)
 -----------------------------------------------------------------------------------
     -0.00000      1.84953      1.31299        -0.000000      0.000000     -0.000000
     -0.00000      1.84953      6.56496        -0.000000      0.000000     -0.000000
     -1.60174      4.62383      1.31299        -0.000000      0.000000      0.000000
     -1.60174      4.62383      6.56496         0.000000      0.000000      0.000000
      3.20347      1.84953      1.31299         0.000000      0.000000      0.000000
      3.20347      1.84953      6.56496        -0.000000      0.000000     -0.000000
      1.60173      4.62383      1.31299        -0.000000      0.000000      0.000000
      1.60173      4.62383      6.56496        -0.000000     -0.000000      0.000000
      1.60174      0.92476      3.93897         0.000000     -0.000000     -0.000000
      1.60174      0.92476      9.19094        -0.000000     -0.000000      0.000000
     -0.00000      3.69906      3.93897         0.000000     -0.000000     -0.000000
     -0.00000      3.69906      9.19094        -0.000000     -0.000000      0.000000
      4.80522      0.92476      3.93897         0.000000     -0.000000      0.000000
      4.80522      0.92476      9.19094        -0.000000      0.000000     -0.000000
      3.20348      3.69906      3.93897         0.000000     -0.000000     -0.000000
      3.20348      3.69906      9.19094        -0.000000     -0.000000     -0.000000
 -----------------------------------------------------------------------------------
    total drift:                               -0.000009     -0.000000      0.000000


--------------------------------------------------------------------------------------------------------



  FREE ENERGIE OF THE ION-ELECTRON SYSTEM (eV)
  ---------------------------------------------------
  free  energy   TOTEN  =       -24.33590300 eV

  energy  without entropy=      -24.31899258  energy(sigma->0) =      -24.32744779



--------------------------------------------------------------------------------------------------------


    POTLOK:  cpu time    0.02: real time    0.03


--------------------------------------------------------------------------------------------------------




--------------------------------------------------------------------------------------------------------


  
 reached required accuracy - stopping structural energy minimisation
     LOOP+:  cpu time    4.09: real time    4.24
    4ORBIT:  cpu time    0.00: real time    0.00

 total amount of memory used by VASP on root node    38450. kBytes
========================================================================

   base      :      30000. kBytes
   nonl-proj :       1527. kBytes
   fftplans  :       1019. kBytes
   grid      :       1418. kBytes
   one-center:          6. kBytes
   wavefun   :       4480. kBytes

  
  
 General timing and accounting informations for this job:
 ========================================================
  
                  Total CPU time used (sec):        5.132
                            User time (sec):        5.000
                          System time (sec):        0.132
                         Elapsed time (sec):        6.134
  
                   Maximum memory used (kb):       36556.
                   Average memory used (kb):           0.
  
                          Minor page faults:         9482
                          Major page faults:            0
                 Voluntary context switches:         2610
