       N       E                     dE             d eps       ncg     rms          rms(c)
DAV:   1     0.876820364628E+03    0.87682E+03   -0.83322E+04 13744   0.175E+03
DAV:   2    -0.194114216199E+03   -0.10709E+04   -0.10451E+04 16944   0.347E+02
DAV:   3    -0.250183334390E+03   -0.56069E+02   -0.55846E+02 16176   0.859E+01
DAV:   4    -0.250849250688E+03   -0.66592E+00   -0.66400E+00 16152   0.103E+01
DAV:   5    -0.250860382223E+03   -0.11132E-01   -0.11119E-01 15992   0.128E+00    0.295E+01
RMM:   6    -0.226446108834E+03    0.24414E+02   -0.11319E+02 13728   0.315E+01    0.803E+00
RMM:   7    -0.226368354614E+03    0.77754E-01   -0.22612E+00 13728   0.386E+00    0.548E+00
RMM:   8    -0.226397709218E+03   -0.29355E-01   -0.67293E-01 13728   0.403E+00    0.115E+00
RMM:   9    -0.226372323893E+03    0.25385E-01   -0.25913E-01 13728   0.152E+00    0.299E-01
RMM:  10    -0.226373179297E+03   -0.85540E-03   -0.62457E-03 13745   0.260E-01    0.309E-01
RMM:  11    -0.226370868163E+03    0.23111E-02   -0.12093E-02 13728   0.335E-01    0.201E-02
RMM:  12    -0.226370875745E+03   -0.75816E-05   -0.13818E-04 13728   0.439E-02    0.165E-02
RMM:  13    -0.226370870611E+03    0.51339E-05   -0.30582E-05 13706   0.167E-02    0.143E-03
RMM:  14    -0.226370871333E+03   -0.72209E-06   -0.43542E-06 11266   0.607E-03
   1 F= -.22637087E+03 E0= -.22637087E+03  d E =-.226371E+03
       N       E                     dE             d eps       ncg     rms          rms(c)
DAV:   1    -0.226385770717E+03   -0.14900E-01   -0.78773E-01 15976   0.348E+00    0.167E-01
RMM:   2    -0.226388060929E+03   -0.22902E-02   -0.27542E-02 13728   0.593E-01    0.108E-01
RMM:   3    -0.226387695191E+03    0.36574E-03   -0.64611E-04 13728   0.878E-02    0.723E-02
RMM:   4    -0.226387843240E+03   -0.14805E-03   -0.28537E-03 13728   0.163E-01    0.108E-01
RMM:   5    -0.226387572755E+03    0.27048E-03   -0.16928E-03 13728   0.127E-01    0.166E-02
RMM:   6    -0.226387568863E+03    0.38917E-05   -0.10981E-05 12737   0.123E-02    0.113E-02
RMM:   7    -0.226387566763E+03    0.21000E-05   -0.86621E-06 12596   0.949E-03    0.214E-03
RMM:   8    -0.226387566727E+03    0.36489E-07   -0.59541E-07  8112   0.248E-03
   2 F= -.22638757E+03 E0= -.22638757E+03  d E =-.166954E-01
       N       E                     dE             d eps       ncg     rms          rms(c)
DAV:   1    -0.226390590160E+03   -0.30234E-02   -0.46396E-01 15048   0.267E+00    0.128E-01
RMM:   2    -0.226391661617E+03   -0.10715E-02   -0.14185E-02 13728   0.437E-01    0.851E-03
RMM:   3    -0.226391615272E+03    0.46345E-04   -0.17191E-04 13915   0.430E-02    0.424E-03
RMM:   4    -0.226391615654E+03   -0.38168E-06   -0.89041E-06 11897   0.920E-03
   3 F= -.22639162E+03 E0= -.22639162E+03  d E =-.207443E-01
       N       E                     dE             d eps       ncg     rms          rms(c)
DAV:   1    -0.226393169401E+03   -0.15541E-02   -0.34389E-01 14832   0.239E+00    0.732E-02
RMM:   2    -0.226394075489E+03   -0.90609E-03   -0.92474E-03 13728   0.351E-01    0.127E-01
RMM:   3    -0.226393874919E+03    0.20057E-03   -0.20438E-04 13728   0.481E-02    0.100E-01
RMM:   4    -0.226393705685E+03    0.16923E-03   -0.18089E-03 13728   0.126E-01    0.337E-02
RMM:   5    -0.226393688504E+03    0.17181E-04   -0.24908E-05 13664   0.172E-02    0.233E-02
RMM:   6    -0.226393676461E+03    0.12043E-04   -0.72621E-05 13728   0.256E-02    0.570E-03
RMM:   7    -0.226393676050E+03    0.41166E-06   -0.10560E-06  8112   0.339E-03
   4 F= -.22639368E+03 E0= -.22639368E+03  d E =-.206040E-02
       N       E                     dE             d eps       ncg     rms          rms(c)
DAV:   1    -0.226393852454E+03   -0.17599E-03   -0.11469E-01 14928   0.138E+00    0.422E-02
RMM:   2    -0.226394026630E+03   -0.17418E-03   -0.22558E-03 13728   0.180E-01    0.515E-03
RMM:   3    -0.226394021214E+03    0.54163E-05   -0.34220E-05 14002   0.185E-02    0.305E-03
RMM:   4    -0.226394021077E+03    0.13644E-06   -0.23519E-06  8666   0.494E-03
   5 F= -.22639402E+03 E0= -.22639402E+03  d E =-.240542E-02
       N       E                     dE             d eps       ncg     rms          rms(c)
DAV:   1    -0.226394153939E+03   -0.13273E-03   -0.70323E-02 15000   0.106E+00    0.313E-02
RMM:   2    -0.226394305246E+03   -0.15131E-03   -0.15772E-03 13728   0.145E-01    0.353E-02
RMM:   3    -0.226394276052E+03    0.29195E-04   -0.97264E-05 13728   0.320E-02    0.125E-02
RMM:   4    -0.226394277623E+03   -0.15712E-05   -0.45091E-05 13728   0.196E-02    0.112E-02
RMM:   5    -0.226394274308E+03    0.33146E-05   -0.81595E-06 12855   0.888E-03    0.380E-03
RMM:   6    -0.226394274071E+03    0.23686E-06   -0.12491E-06  8107   0.354E-03
   6 F= -.22639427E+03 E0= -.22639427E+03  d E =-.252994E-03
       N       E                     dE             d eps       ncg     rms          rms(c)
DAV:   1    -0.226394068820E+03    0.20549E-03   -0.22162E-01 14520   0.188E+00    0.559E-02
RMM:   2    -0.226394454674E+03   -0.38585E-03   -0.42995E-03 13728   0.246E-01    0.476E-03
RMM:   3    -0.226394446747E+03    0.79264E-05   -0.70961E-05 13883   0.251E-02    0.115E-03
RMM:   4    -0.226394447015E+03   -0.26760E-06   -0.29543E-06  9340   0.458E-03
   7 F= -.22639445E+03 E0= -.22639445E+03  d E =-.425937E-03
       N       E                     dE             d eps       ncg     rms          rms(c)
DAV:   1    -0.226394434248E+03    0.12499E-04   -0.25300E-02 15088   0.636E-01    0.226E-02
RMM:   2    -0.226394552688E+03   -0.11844E-03   -0.96517E-04 13728   0.109E-01    0.521E-02
RMM:   3    -0.226394490736E+03    0.61952E-04   -0.18750E-04 13728   0.428E-02    0.173E-02
RMM:   4    -0.226394487630E+03    0.31056E-05   -0.84484E-06 12901   0.930E-03    0.103E-02
RMM:   5    -0.226394485421E+03    0.22091E-05   -0.95027E-06 12730   0.909E-03    0.234E-03
RMM:   6    -0.226394485325E+03    0.95753E-07   -0.90297E-07  8062   0.300E-03
   8 F= -.22639449E+03 E0= -.22639449E+03  d E =-.383106E-04
       N       E                     dE             d eps       ncg     rms          rms(c)
DAV:   1    -0.226394485520E+03   -0.98945E-07   -0.65717E-04 15328   0.102E-01    0.369E-03
RMM:   2    -0.226394486805E+03   -0.12845E-05   -0.14768E-05 13436   0.142E-02    0.364E-04
RMM:   3    -0.226394486777E+03    0.27409E-07   -0.21169E-07  6708   0.160E-03    0.159E-04
RMM:   4    -0.226394486775E+03    0.26430E-08   -0.15711E-08  2507   0.684E-04
   9 F= -.22639449E+03 E0= -.22639449E+03  d E =-.397597E-04
       N       E                     dE             d eps       ncg     rms          rms(c)
DAV:   1    -0.226394486772E+03    0.54936E-08   -0.12181E-06  9168   0.447E-03    0.244E-04
RMM:   2    -0.226394486781E+03   -0.88408E-08   -0.60134E-08  6398   0.120E-03    0.131E-04
RMM:   3    -0.226394486780E+03    0.59586E-09   -0.63011E-11   728   0.352E-04    0.915E-05
RMM:   4    -0.226394486783E+03   -0.30460E-08   -0.70059E-10   736   0.492E-04
  10 F= -.22639449E+03 E0= -.22639449E+03  d E =-.397681E-04
       N       E                     dE             d eps       ncg     rms          rms(c)
DAV:   1    -0.226394486789E+03   -0.90142E-08   -0.47662E-07  8368   0.282E-03    0.258E-04
RMM:   2    -0.226394486783E+03    0.55070E-08   -0.48348E-09  1408   0.717E-04    0.139E-04
RMM:   3    -0.226394486783E+03    0.12204E-09   -0.11459E-09   577   0.649E-04    0.105E-04
RMM:   4    -0.226394486783E+03    0.65916E-09   -0.11766E-09   534   0.641E-04
  11 F= -.22639449E+03 E0= -.22639449E+03  d E =-.397678E-04
       N       E                     dE             d eps       ncg     rms          rms(c)
DAV:   1    -0.226394486780E+03    0.28899E-08   -0.12696E-07  7944   0.136E-03    0.123E-04
RMM:   2    -0.226394486781E+03   -0.72845E-09    0.00000E+00   435   0.318E-04    0.574E-05
RMM:   3    -0.226394486781E+03    0.21430E-10    0.00000E+00   266   0.327E-04    0.404E-05
RMM:   4    -0.226394486781E+03    0.13318E-09    0.00000E+00   242   0.335E-04
  12 F= -.22639449E+03 E0= -.22639449E+03  d E =-.397662E-04
       N       E                     dE             d eps       ncg     rms          rms(c)
DAV:   1    -0.226394486782E+03   -0.95756E-09   -0.20327E-08  8072   0.539E-04    0.691E-05
RMM:   2    -0.226394486783E+03   -0.63628E-09    0.00000E+00   322   0.162E-04    0.369E-05
RMM:   3    -0.226394486783E+03   -0.11295E-09    0.00000E+00   218   0.167E-04    0.356E-05
RMM:   4    -0.226394486783E+03    0.22300E-09    0.00000E+00   198   0.168E-04
  13 F= -.22639449E+03 E0= -.22639449E+03  d E =-.397678E-04
       N       E                     dE             d eps       ncg     rms          rms(c)
DAV:   1    -0.226394486782E+03    0.62630E-09   -0.34282E-09  7696   0.228E-04    0.484E-05
RMM:   2    -0.226394486782E+03    0.57781E-09    0.00000E+00   233   0.754E-05    0.350E-05
RMM:   3    -0.226394486782E+03    0.82679E-10    0.00000E+00   174   0.775E-05    0.348E-05
RMM:   4    -0.226394486782E+03   -0.25864E-11    0.00000E+00   156   0.786E-05
  14 F= -.22639449E+03 E0= -.22639449E+03  d E =-.397667E-04
       N       E                     dE             d eps       ncg     rms          rms(c)
DAV:   1    -0.226394487693E+03   -0.91114E-06   -0.18430E-04 14328   0.532E-02    0.254E-03
RMM:   2    -0.226394489182E+03   -0.14891E-05   -0.11217E-05 13708   0.113E-02    0.704E-03
RMM:   3    -0.226394488236E+03    0.94535E-06   -0.52345E-06 11672   0.685E-03    0.203E-03
RMM:   4    -0.226394488118E+03    0.11854E-06   -0.36431E-07  7005   0.202E-03
  15 F= -.22639449E+03 E0= -.22639449E+03  d E =-.133635E-05
       N       E                     dE             d eps       ncg     rms          rms(c)
DAV:   1    -0.226394488026E+03    0.21038E-06   -0.19698E-06 10224   0.571E-03    0.802E-04
RMM:   2    -0.226394488032E+03   -0.61067E-08   -0.17524E-07  6938   0.172E-03    0.340E-04
RMM:   3    -0.226394488037E+03   -0.50288E-08    0.00000E+00   992   0.544E-04    0.233E-04
RMM:   4    -0.226394488037E+03    0.25221E-09    0.00000E+00   808   0.565E-04
  16 F= -.22639449E+03 E0= -.22639449E+03  d E =-.125539E-05
       N       E                     dE             d eps       ncg     rms          rms(c)
DAV:   1    -0.226394488043E+03   -0.62003E-08   -0.19037E-07  7872   0.179E-03    0.219E-04
RMM:   2    -0.226394488049E+03   -0.53397E-08    0.00000E+00   823   0.524E-04    0.167E-04
RMM:   3    -0.226394488050E+03   -0.90489E-09    0.00000E+00   196   0.520E-04    0.136E-04
RMM:   4    -0.226394488049E+03    0.20387E-09    0.00000E+00   164   0.557E-04
  17 F= -.22639449E+03 E0= -.22639449E+03  d E =-.126788E-05
       N       E                     dE             d eps       ncg     rms          rms(c)
DAV:   1    -0.226394488045E+03    0.43474E-08   -0.62120E-08  7784   0.934E-04    0.125E-04
RMM:   2    -0.226394488043E+03    0.19578E-08    0.00000E+00   372   0.236E-04    0.604E-05
RMM:   3    -0.226394488042E+03    0.17672E-08    0.00000E+00   137   0.237E-04    0.511E-05
RMM:   4    -0.226394488040E+03    0.12849E-08    0.00000E+00   111   0.240E-04
  18 F= -.22639449E+03 E0= -.22639449E+03  d E =-.125873E-05
       N       E                     dE             d eps       ncg     rms          rms(c)
DAV:   1    -0.226394488034E+03    0.76483E-08   -0.17506E-05 13064   0.172E-02    0.470E-04
RMM:   2    -0.226394488099E+03   -0.64595E-07   -0.39452E-07  6908   0.246E-03    0.881E-04
RMM:   3    -0.226394488071E+03    0.27682E-07   -0.21233E-08  2939   0.827E-04    0.490E-04
RMM:   4    -0.226394488055E+03    0.15490E-07   -0.12446E-07  5874   0.118E-03
  19 F= -.22639449E+03 E0= -.22639449E+03  d E =-.150592E-07
