AlO                                     
           1
     4.802777   -0.000000   -0.000000
    -2.401388    4.242513    0.041593
     0.000000    0.131026   13.102626
   Al   O 
  12  18
Direct configuration=     1
   0.00000000  0.00000000  0.35221672
   0.00000000  0.00000000  0.64778325
   0.00000000  0.00000000  0.14778328
   0.00000000  0.00000000  0.85221675
   0.66666669  0.33333334  0.68555007
   0.66666669  0.33333334  0.98111662
   0.66666669  0.33333334  0.48111662
   0.66666669  0.33333334  0.18555001
   0.33333334  0.66666669  0.01888338
   0.33333334  0.66666669  0.31444993
   0.33333334  0.66666669  0.81444993
   0.33333334  0.66666669  0.51888338
   0.30611761  0.00000000  0.25000000
   0.69388239  0.00000000  0.75000000
   0.00000000  0.30611761  0.25000000
   0.00000000  0.69388239  0.75000000
   0.69388239  0.69388239  0.25000000
   0.30611761  0.30611761  0.75000000
   0.97278430  0.33333334  0.58333331
   0.36054904  0.33333334  0.08333334
   0.66666669  0.63945093  0.58333331
   0.66666669  0.02721572  0.08333334
   0.36054904  0.02721572  0.58333331
   0.97278430  0.63945093  0.08333334
   0.63945093  0.66666669  0.91666669
   0.02721572  0.66666669  0.41666666
   0.33333334  0.97278430  0.91666669
   0.33333334  0.36054904  0.41666666
   0.02721572  0.36054904  0.91666669
   0.63945093  0.97278430  0.41666666
Direct configuration=     2
   0.00092684  0.00152746  0.35236750
  -0.00092684 -0.00152746  0.64763247
  -0.00060062 -0.00152746  0.14763250
   0.00060062  0.00152746  0.85236753
   0.66759353  0.33486080  0.68570084
   0.66573985  0.33180588  0.98096585
   0.66606607  0.33180588  0.48096585
   0.66726731  0.33486080  0.18570078
   0.33426018  0.66819415  0.01903415
   0.33240650  0.66513923  0.31429916
   0.33273272  0.66513923  0.81429916
   0.33393396  0.66819415  0.51903415
   0.30574065 -0.00000000  0.25000000
   0.69425935 -0.00000000  0.75000000
   0.00022402  0.30602335  0.25017304
  -0.00022402  0.69397665  0.74982696
   0.69420067  0.69397665  0.24982696
   0.30579933  0.30602335  0.75017304
   0.97240733  0.33333334  0.58333331
   0.36092601  0.33333334  0.08333334
   0.66689070  0.63935666  0.58350635
   0.66644267  0.02730998  0.08316030
   0.36086732  0.02730998  0.58316028
   0.97246602  0.63935666  0.08350637
   0.63907396  0.66666669  0.91666669
   0.02759269  0.66666669  0.41666666
   0.33355736  0.97269004  0.91683972
   0.33310933  0.36064331  0.41649362
   0.02753400  0.36064331  0.91649365
   0.63913265  0.97269004  0.41683969
Direct configuration=     3
   0.00163794  0.00269938  0.35248317
  -0.00163794 -0.00269938  0.64751680
  -0.00106143 -0.00269938  0.14751683
   0.00106143  0.00269938  0.85248320
   0.66830463  0.33603272  0.68581652
   0.66502875  0.33063397  0.98085017
   0.66560525  0.33063397  0.48085017
   0.66772812  0.33603272  0.18581646
   0.33497128  0.66936606  0.01914983
   0.33169540  0.66396731  0.31418348
   0.33227191  0.66396731  0.81418348
   0.33439478  0.66936606  0.51914983
   0.30545142 -0.00000000  0.25000000
   0.69454858 -0.00000000  0.75000000
   0.00039589  0.30595103  0.25030580
  -0.00039589  0.69404897  0.74969420
   0.69444486  0.69404897  0.24969420
   0.30555514  0.30595103  0.75030580
   0.97211811  0.33333334  0.58333331
   0.36121523  0.33333334  0.08333334
   0.66706258  0.63928434  0.58363911
   0.66627080  0.02738230  0.08302754
   0.36111152  0.02738230  0.58302752
   0.97222183  0.63928434  0.08363913
   0.63878474  0.66666669  0.91666669
   0.02788191  0.66666669  0.41666666
   0.33372923  0.97261772  0.91697248
   0.33293745  0.36071563  0.41636086
   0.02777819  0.36071563  0.91636089
   0.63888845  0.97261772  0.41697245
Direct configuration=     4
   0.00198558  0.00292854  0.35258011
  -0.00198558 -0.00292854  0.64741986
  -0.00094297 -0.00292854  0.14741989
   0.00094297  0.00292854  0.85258014
   0.66865226  0.33626189  0.68591345
   0.66468111  0.33040480  0.98075324
   0.66572372  0.33040480  0.48075324
   0.66760965  0.33626189  0.18591339
   0.33531892  0.66959523  0.01924676
   0.33134777  0.66373814  0.31408655
   0.33239038  0.66373814  0.81408655
   0.33427631  0.66959523  0.51924676
   0.30571689 -0.00000000  0.25000000
   0.69428311 -0.00000000  0.75000000
  -0.00010375  0.30564578  0.25030931
   0.00010375  0.69435422  0.74969069
   0.69425047  0.69435422  0.24969069
   0.30574953  0.30564578  0.75030931
   0.97238358  0.33333334  0.58333331
   0.36094977  0.33333334  0.08333334
   0.66656293  0.63897909  0.58364262
   0.66677044  0.02768756  0.08302403
   0.36091712  0.02768756  0.58302400
   0.97241622  0.63897909  0.08364265
   0.63905020  0.66666669  0.91666669
   0.02761645  0.66666669  0.41666666
   0.33322959  0.97231247  0.91697600
   0.33343710  0.36102088  0.41635735
   0.02758380  0.36102088  0.91635738
   0.63908285  0.97231247  0.41697597
Direct configuration=     5
   0.00218639  0.00306092  0.35263610
  -0.00218639 -0.00306092  0.64736387
  -0.00087453 -0.00306092  0.14736390
   0.00087453  0.00306092  0.85263613
   0.66885308  0.33639426  0.68596944
   0.66448030  0.33027242  0.98069724
   0.66579215  0.33027242  0.48069724
   0.66754122  0.33639426  0.18596938
   0.33551973  0.66972761  0.01930276
   0.33114695  0.66360577  0.31403056
   0.33245881  0.66360577  0.81403056
   0.33420788  0.66972761  0.51930276
   0.30587023 -0.00000000  0.25000000
   0.69412977 -0.00000000  0.75000000
  -0.00039238  0.30546945  0.25031134
   0.00039238  0.69453055  0.74968866
   0.69413818  0.69453055  0.24968866
   0.30586182  0.30546945  0.75031134
   0.97253692  0.33333334  0.58333331
   0.36079642  0.33333334  0.08333334
   0.66627431  0.63880276  0.58364465
   0.66705906  0.02786389  0.08302200
   0.36080483  0.02786389  0.58302197
   0.97252851  0.63880276  0.08364467
   0.63920355  0.66666669  0.91666669
   0.02746310  0.66666669  0.41666666
   0.33294097  0.97213614  0.91697803
   0.33372572  0.36119721  0.41635532
   0.02747151  0.36119721  0.91635535
   0.63919514  0.97213614  0.41697800
Direct configuration=     6
   0.00219733  0.00304630  0.35264368
  -0.00219733 -0.00304630  0.64735629
  -0.00084898 -0.00304630  0.14735632
   0.00084898  0.00304630  0.85264371
   0.66886402  0.33637965  0.68597702
   0.66446936  0.33028704  0.98068967
   0.66581771  0.33028704  0.48068967
   0.66751566  0.33637965  0.18597696
   0.33553067  0.66971299  0.01931033
   0.33113601  0.66362038  0.31402298
   0.33248437  0.66362038  0.81402298
   0.33418232  0.66971299  0.51931033
   0.30584720 -0.00000000  0.25000000
   0.69415280 -0.00000000  0.75000000
  -0.00050059  0.30544291  0.25037984
   0.00050059  0.69455709  0.74962016
   0.69405650  0.69455709  0.24962016
   0.30594350  0.30544291  0.75037984
   0.97251389  0.33333334  0.58333331
   0.36081945  0.33333334  0.08333334
   0.66616610  0.63877623  0.58371316
   0.66716727  0.02789042  0.08295349
   0.36072316  0.02789042  0.58295347
   0.97261019  0.63877623  0.08371318
   0.63918052  0.66666669  0.91666669
   0.02748613  0.66666669  0.41666666
   0.33283276  0.97210960  0.91704653
   0.33383393  0.36122374  0.41628681
   0.02738983  0.36122374  0.91628684
   0.63927681  0.97210960  0.41704650
Direct configuration=     7
   0.00221675  0.00302036  0.35265713
  -0.00221675 -0.00302036  0.64734284
  -0.00080361 -0.00302036  0.14734287
   0.00080361  0.00302036  0.85265716
   0.66888344  0.33635370  0.68599047
   0.66444994  0.33031298  0.98067621
   0.66586308  0.33031298  0.48067621
   0.66747030  0.33635370  0.18599041
   0.33555009  0.66968705  0.01932379
   0.33111659  0.66364633  0.31400953
   0.33252973  0.66364633  0.81400953
   0.33413695  0.66968705  0.51932379
   0.30580632 -0.00000000  0.25000000
   0.69419368 -0.00000000  0.75000000
  -0.00069266  0.30539581  0.25050144
   0.00069266  0.69460419  0.74949856
   0.69391152  0.69460419  0.24949856
   0.30608848  0.30539581  0.75050144
   0.97247301  0.33333334  0.58333331
   0.36086033  0.33333334  0.08333334
   0.66597402  0.63872913  0.58383476
   0.66735935  0.02793752  0.08283189
   0.36057818  0.02793752  0.58283187
   0.97275517  0.63872913  0.08383478
   0.63913964  0.66666669  0.91666669
   0.02752701  0.66666669  0.41666666
   0.33264068  0.97206250  0.91716813
   0.33402601  0.36127084  0.41616521
   0.02724485  0.36127084  0.91616524
   0.63942179  0.97206250  0.41716810
Direct configuration=     8
   0.00214237  0.00302978  0.35264776
  -0.00214237 -0.00302978  0.64735221
  -0.00088741 -0.00302978  0.14735224
   0.00088741  0.00302978  0.85264779
   0.66880905  0.33636312  0.68598111
   0.66452432  0.33030357  0.98068558
   0.66577928  0.33030357  0.48068558
   0.66755410  0.33636312  0.18598105
   0.33547571  0.66969646  0.01931442
   0.33119098  0.66363691  0.31401889
   0.33244593  0.66363691  0.81401889
   0.33422075  0.66969646  0.51931442
   0.30578515 -0.00000000  0.25000000
   0.69421485 -0.00000000  0.75000000
  -0.00082801  0.30532082  0.25051434
   0.00082801  0.69467918  0.74948566
   0.69385117  0.69467918  0.24948566
   0.30614883  0.30532082  0.75051434
   0.97245183  0.33333334  0.58333331
   0.36088151  0.33333334  0.08333334
   0.66583868  0.63865413  0.58384765
   0.66749469  0.02801251  0.08281900
   0.36051783  0.02801251  0.58281897
   0.97281551  0.63865413  0.08384768
   0.63911846  0.66666669  0.91666669
   0.02754819  0.66666669  0.41666666
   0.33250534  0.97198751  0.91718103
   0.33416135  0.36134584  0.41615232
   0.02718451  0.36134584  0.91615235
   0.63948214  0.97198751  0.41718100
Direct configuration=     9
   0.00215437  0.00302826  0.35264927
  -0.00215437 -0.00302826  0.64735070
  -0.00087389 -0.00302826  0.14735073
   0.00087389  0.00302826  0.85264930
   0.66882106  0.33636160  0.68598262
   0.66451232  0.33030509  0.98068407
   0.66579280  0.33030509  0.48068407
   0.66754057  0.33636160  0.18598256
   0.33548771  0.66969494  0.01931593
   0.33117897  0.66363843  0.31401738
   0.33245946  0.66363843  0.81401738
   0.33420723  0.66969494  0.51931593
   0.30578856 -0.00000000  0.25000000
   0.69421144 -0.00000000  0.75000000
  -0.00080616  0.30533292  0.25051226
   0.00080616  0.69466708  0.74948774
   0.69386091  0.69466708  0.24948774
   0.30613909  0.30533292  0.75051226
   0.97245525  0.33333334  0.58333331
   0.36087809  0.33333334  0.08333334
   0.66586053  0.63866624  0.58384557
   0.66747285  0.02800041  0.08282108
   0.36052757  0.02800041  0.58282105
   0.97280577  0.63866624  0.08384559
   0.63912188  0.66666669  0.91666669
   0.02754477  0.66666669  0.41666666
   0.33252718  0.97199961  0.91717895
   0.33413950  0.36133373  0.41615440
   0.02719425  0.36133373  0.91615443
   0.63947240  0.97199961  0.41717892
Direct configuration=    10
   0.00215386  0.00302832  0.35264921
  -0.00215386 -0.00302832  0.64735076
  -0.00087446 -0.00302832  0.14735079
   0.00087446  0.00302832  0.85264924
   0.66882055  0.33636166  0.68598255
   0.66451283  0.33030502  0.98068413
   0.66579222  0.33030502  0.48068413
   0.66754115  0.33636166  0.18598249
   0.33548720  0.66969501  0.01931587
   0.33117948  0.66363837  0.31401745
   0.33245888  0.66363837  0.81401745
   0.33420781  0.66969501  0.51931587
   0.30578842 -0.00000000  0.25000000
   0.69421158 -0.00000000  0.75000000
  -0.00080709  0.30533241  0.25051235
   0.00080709  0.69466759  0.74948765
   0.69386050  0.69466759  0.24948765
   0.30613950  0.30533241  0.75051235
   0.97245511  0.33333334  0.58333331
   0.36087824  0.33333334  0.08333334
   0.66585959  0.63866572  0.58384566
   0.66747378  0.02800093  0.08282099
   0.36052715  0.02800093  0.58282097
   0.97280619  0.63866572  0.08384568
   0.63912173  0.66666669  0.91666669
   0.02754492  0.66666669  0.41666666
   0.33252625  0.97199909  0.91717903
   0.33414044  0.36133425  0.41615431
   0.02719383  0.36133425  0.91615434
   0.63947282  0.97199909  0.41717900
Direct configuration=    11
   0.00215420  0.00302828  0.35264925
  -0.00215420 -0.00302828  0.64735072
  -0.00087408 -0.00302828  0.14735075
   0.00087408  0.00302828  0.85264928
   0.66882088  0.33636162  0.68598260
   0.66451249  0.33030506  0.98068409
   0.66579260  0.33030506  0.48068409
   0.66754077  0.33636162  0.18598254
   0.33548754  0.66969497  0.01931591
   0.33117915  0.66363841  0.31401740
   0.33245926  0.66363841  0.81401740
   0.33420743  0.66969497  0.51931591
   0.30578851 -0.00000000  0.25000000
   0.69421149 -0.00000000  0.75000000
  -0.00080648  0.30533275  0.25051229
   0.00080648  0.69466725  0.74948771
   0.69386077  0.69466725  0.24948771
   0.30613923  0.30533275  0.75051229
   0.97245520  0.33333334  0.58333331
   0.36087814  0.33333334  0.08333334
   0.66586021  0.63866606  0.58384560
   0.66747317  0.02800059  0.08282105
   0.36052743  0.02800059  0.58282102
   0.97280592  0.63866606  0.08384563
   0.63912183  0.66666669  0.91666669
   0.02754482  0.66666669  0.41666666
   0.33252686  0.97199944  0.91717898
   0.33413982  0.36133391  0.41615437
   0.02719411  0.36133391  0.91615440
   0.63947254  0.97199944  0.41717895
Direct configuration=    12
   0.00215403  0.00302830  0.35264923
  -0.00215403 -0.00302830  0.64735074
  -0.00087427 -0.00302830  0.14735077
   0.00087427  0.00302830  0.85264926
   0.66882071  0.33636164  0.68598257
   0.66451266  0.33030504  0.98068411
   0.66579241  0.33030504  0.48068411
   0.66754096  0.33636164  0.18598252
   0.33548737  0.66969499  0.01931589
   0.33117932  0.66363839  0.31401743
   0.33245907  0.66363839  0.81401743
   0.33420762  0.66969499  0.51931589
   0.30578847 -0.00000000  0.25000000
   0.69421153 -0.00000000  0.75000000
  -0.00080679  0.30533258  0.25051232
   0.00080679  0.69466742  0.74948768
   0.69386063  0.69466742  0.24948768
   0.30613937  0.30533258  0.75051232
   0.97245515  0.33333334  0.58333331
   0.36087819  0.33333334  0.08333334
   0.66585990  0.63866589  0.58384563
   0.66747347  0.02800076  0.08282102
   0.36052729  0.02800076  0.58282099
   0.97280605  0.63866589  0.08384565
   0.63912178  0.66666669  0.91666669
   0.02754487  0.66666669  0.41666666
   0.33252656  0.97199927  0.91717901
   0.33414013  0.36133408  0.41615434
   0.02719397  0.36133408  0.91615437
   0.63947268  0.97199927  0.41717898
Direct configuration=    13
   0.00215410  0.00302829  0.35264924
  -0.00215410 -0.00302829  0.64735073
  -0.00087419 -0.00302829  0.14735076
   0.00087419  0.00302829  0.85264927
   0.66882079  0.33636163  0.68598258
   0.66451259  0.33030505  0.98068410
   0.66579250  0.33030505  0.48068410
   0.66754088  0.33636163  0.18598252
   0.33548744  0.66969498  0.01931590
   0.33117924  0.66363840  0.31401742
   0.33245915  0.66363840  0.81401742
   0.33420753  0.66969498  0.51931590
   0.30578849 -0.00000000  0.25000000
   0.69421151 -0.00000000  0.75000000
  -0.00080665  0.30533265  0.25051231
   0.00080665  0.69466735  0.74948769
   0.69386070  0.69466735  0.24948769
   0.30613930  0.30533265  0.75051231
   0.97245517  0.33333334  0.58333331
   0.36087817  0.33333334  0.08333334
   0.66586004  0.63866597  0.58384562
   0.66747334  0.02800068  0.08282103
   0.36052735  0.02800068  0.58282101
   0.97280599  0.63866597  0.08384564
   0.63912180  0.66666669  0.91666669
   0.02754485  0.66666669  0.41666666
   0.33252669  0.97199934  0.91717899
   0.33413999  0.36133400  0.41615435
   0.02719403  0.36133400  0.91615438
   0.63947262  0.97199934  0.41717896
Direct configuration=    14
   0.00215407  0.00302830  0.35264924
  -0.00215407 -0.00302830  0.64735073
  -0.00087423 -0.00302830  0.14735076
   0.00087423  0.00302830  0.85264927
   0.66882075  0.33636164  0.68598258
   0.66451262  0.33030505  0.98068411
   0.66579246  0.33030505  0.48068411
   0.66754092  0.33636164  0.18598252
   0.33548741  0.66969498  0.01931589
   0.33117928  0.66363839  0.31401742
   0.33245911  0.66363839  0.81401742
   0.33420757  0.66969498  0.51931589
   0.30578848 -0.00000000  0.25000000
   0.69421152 -0.00000000  0.75000000
  -0.00080672  0.30533262  0.25051231
   0.00080672  0.69466738  0.74948769
   0.69386067  0.69466738  0.24948769
   0.30613933  0.30533262  0.75051231
   0.97245516  0.33333334  0.58333331
   0.36087818  0.33333334  0.08333334
   0.66585997  0.63866593  0.58384562
   0.66747340  0.02800072  0.08282102
   0.36052732  0.02800072  0.58282100
   0.97280602  0.63866593  0.08384565
   0.63912179  0.66666669  0.91666669
   0.02754486  0.66666669  0.41666666
   0.33252663  0.97199930  0.91717900
   0.33414006  0.36133404  0.41615435
   0.02719400  0.36133404  0.91615438
   0.63947265  0.97199930  0.41717897
Direct configuration=    15
   0.00216236  0.00303028  0.35264241
  -0.00216236 -0.00303028  0.64735756
  -0.00086792 -0.00303028  0.14735759
   0.00086792  0.00303028  0.85264244
   0.66882905  0.33636362  0.68597575
   0.66450433  0.33030307  0.98069094
   0.66579877  0.33030307  0.48069094
   0.66753461  0.33636362  0.18597569
   0.33549570  0.66969696  0.01930906
   0.33117098  0.66363641  0.31402425
   0.33246542  0.66363641  0.81402425
   0.33420126  0.66969696  0.51930906
   0.30578337 -0.00000000  0.25000000
   0.69421663 -0.00000000  0.75000000
  -0.00081077  0.30532283  0.25051233
   0.00081077  0.69467717  0.74948767
   0.69386640  0.69467717  0.24948767
   0.30613360  0.30532283  0.75051233
   0.97245006  0.33333334  0.58333331
   0.36088328  0.33333334  0.08333334
   0.66585592  0.63865615  0.58384564
   0.66747745  0.02801050  0.08282101
   0.36053306  0.02801050  0.58282099
   0.97280029  0.63865615  0.08384566
   0.63911669  0.66666669  0.91666669
   0.02754996  0.66666669  0.41666666
   0.33252258  0.97198952  0.91717901
   0.33414411  0.36134382  0.41615433
   0.02719973  0.36134382  0.91615436
   0.63946692  0.97198952  0.41717898
Direct configuration=    16
   0.00216315  0.00303047  0.35264175
  -0.00216315 -0.00303047  0.64735822
  -0.00086731 -0.00303047  0.14735825
   0.00086731  0.00303047  0.85264178
   0.66882984  0.33636381  0.68597509
   0.66450353  0.33030288  0.98069159
   0.66579937  0.33030288  0.48069159
   0.66753400  0.33636381  0.18597504
   0.33549650  0.66969715  0.01930841
   0.33117019  0.66363622  0.31402491
   0.33246603  0.66363622  0.81402491
   0.33420066  0.66969715  0.51930841
   0.30578288 -0.00000000  0.25000000
   0.69421712 -0.00000000  0.75000000
  -0.00081115  0.30532190  0.25051233
   0.00081115  0.69467810  0.74948767
   0.69386695  0.69467810  0.24948767
   0.30613305  0.30532190  0.75051233
   0.97244957  0.33333334  0.58333331
   0.36088377  0.33333334  0.08333334
   0.66585553  0.63865521  0.58384564
   0.66747784  0.02801144  0.08282101
   0.36053360  0.02801144  0.58282099
   0.97279974  0.63865521  0.08384566
   0.63911620  0.66666669  0.91666669
   0.02755045  0.66666669  0.41666666
   0.33252219  0.97198858  0.91717901
   0.33414450  0.36134476  0.41615433
   0.02720028  0.36134476  0.91615436
   0.63946637  0.97198858  0.41717898
Direct configuration=    17
   0.00216287  0.00303040  0.35264198
  -0.00216287 -0.00303040  0.64735799
  -0.00086753 -0.00303040  0.14735802
   0.00086753  0.00303040  0.85264201
   0.66882956  0.33636374  0.68597533
   0.66450381  0.33030294  0.98069136
   0.66579916  0.33030294  0.48069136
   0.66753421  0.33636374  0.18597527
   0.33549622  0.66969709  0.01930864
   0.33117047  0.66363629  0.31402467
   0.33246582  0.66363629  0.81402467
   0.33420087  0.66969709  0.51930864
   0.30578306 -0.00000000  0.25000000
   0.69421694 -0.00000000  0.75000000
  -0.00081102  0.30532223  0.25051233
   0.00081102  0.69467777  0.74948767
   0.69386675  0.69467777  0.24948767
   0.30613325  0.30532223  0.75051233
   0.97244974  0.33333334  0.58333331
   0.36088360  0.33333334  0.08333334
   0.66585567  0.63865554  0.58384564
   0.66747770  0.02801110  0.08282101
   0.36053341  0.02801110  0.58282099
   0.97279993  0.63865554  0.08384566
   0.63911637  0.66666669  0.91666669
   0.02755028  0.66666669  0.41666666
   0.33252233  0.97198892  0.91717901
   0.33414436  0.36134443  0.41615433
   0.02720009  0.36134443  0.91615436
   0.63946656  0.97198892  0.41717898
Direct configuration=    18
   0.00216301  0.00303043  0.35264187
  -0.00216301 -0.00303043  0.64735810
  -0.00086742 -0.00303043  0.14735813
   0.00086742  0.00303043  0.85264190
   0.66882970  0.33636378  0.68597521
   0.66450367  0.33030291  0.98069148
   0.66579927  0.33030291  0.48069148
   0.66753411  0.33636378  0.18597515
   0.33549636  0.66969712  0.01930852
   0.33117033  0.66363625  0.31402479
   0.33246592  0.66363625  0.81402479
   0.33420076  0.66969712  0.51930852
   0.30578297 -0.00000000  0.25000000
   0.69421703 -0.00000000  0.75000000
  -0.00081109  0.30532206  0.25051233
   0.00081109  0.69467794  0.74948767
   0.69386685  0.69467794  0.24948767
   0.30613315  0.30532206  0.75051233
   0.97244966  0.33333334  0.58333331
   0.36088369  0.33333334  0.08333334
   0.66585560  0.63865537  0.58384564
   0.66747777  0.02801127  0.08282101
   0.36053351  0.02801127  0.58282099
   0.97279983  0.63865537  0.08384566
   0.63911628  0.66666669  0.91666669
   0.02755036  0.66666669  0.41666666
   0.33252226  0.97198875  0.91717901
   0.33414443  0.36134460  0.41615433
   0.02720019  0.36134460  0.91615436
   0.63946646  0.97198875  0.41717898
Direct configuration=    19
   0.00216299  0.00303169  0.35264081
  -0.00216299 -0.00303169  0.64735916
  -0.00086871 -0.00303169  0.14735919
   0.00086871  0.00303169  0.85264084
   0.66882967  0.33636504  0.68597415
   0.66450370  0.33030165  0.98069253
   0.66579798  0.33030165  0.48069253
   0.66753539  0.33636504  0.18597409
   0.33549633  0.66969838  0.01930747
   0.33117036  0.66363499  0.31402585
   0.33246464  0.66363499  0.81402585
   0.33420205  0.66969838  0.51930747
   0.30578507 -0.00000000  0.25000000
   0.69421493 -0.00000000  0.75000000
  -0.00081036  0.30532523  0.25051187
   0.00081036  0.69467477  0.74948813
   0.69386441  0.69467477  0.24948813
   0.30613559  0.30532523  0.75051187
   0.97245176  0.33333334  0.58333331
   0.36088158  0.33333334  0.08333334
   0.66585632  0.63865855  0.58384518
   0.66747705  0.02800810  0.08282147
   0.36053106  0.02800810  0.58282145
   0.97280228  0.63865855  0.08384520
   0.63911839  0.66666669  0.91666669
   0.02754826  0.66666669  0.41666666
   0.33252298  0.97199192  0.91717855
   0.33414371  0.36134143  0.41615479
   0.02719774  0.36134143  0.91615482
   0.63946891  0.97199192  0.41717852
