       N       E                     dE             d eps       ncg     rms          rms(c)
DAV:   1     0.562002493186E+03    0.56200E+03   -0.30503E+04 21828   0.122E+03
DAV:   2    -0.640565919311E+02   -0.62606E+03   -0.60404E+03 21700   0.298E+02
DAV:   3    -0.170222803338E+03   -0.10617E+03   -0.99742E+02 30448   0.104E+02
DAV:   4    -0.175159860564E+03   -0.49371E+01   -0.48710E+01 27728   0.244E+01
DAV:   5    -0.175256234282E+03   -0.96374E-01   -0.96030E-01 27756   0.351E+00    0.195E+01
RMM:   6    -0.163337577008E+03    0.11919E+02   -0.13268E+02 21807   0.414E+01    0.533E+00
RMM:   7    -0.161621711439E+03    0.17159E+01   -0.37298E+00 21715   0.772E+00    0.319E+00
RMM:   8    -0.161668214935E+03   -0.46503E-01   -0.69015E+00 21784   0.879E+00    0.286E+00
RMM:   9    -0.161217271820E+03    0.45094E+00   -0.31921E+00 21700   0.698E+00    0.647E-01
RMM:  10    -0.161198306117E+03    0.18966E-01   -0.11266E-01 22024   0.124E+00    0.328E-01
RMM:  11    -0.161193393128E+03    0.49130E-02   -0.19954E-02 21769   0.552E-01    0.106E-01
RMM:  12    -0.161193420709E+03   -0.27581E-04   -0.77191E-03 22459   0.236E-01    0.382E-02
RMM:  13    -0.161193386835E+03    0.33875E-04   -0.59199E-04 22093   0.104E-01    0.423E-02
RMM:  14    -0.161193316286E+03    0.70549E-04   -0.30469E-04 21790   0.666E-02    0.110E-02
RMM:  15    -0.161193322272E+03   -0.59858E-05   -0.11948E-04 24031   0.254E-02    0.490E-03
RMM:  16    -0.161193320552E+03    0.17201E-05   -0.32509E-06 15684   0.554E-03    0.243E-03
RMM:  17    -0.161193320043E+03    0.50831E-06   -0.32272E-06 15516   0.637E-03
   1 F= -.16119332E+03 E0= -.16118412E+03  d E =-.161193E+03
