 vasp.5.3.5 31Mar14 (build Nov 12 2015 11:19:23) complex                         
 executed on           CrayXC_GCC date 2016.06.28  22:28:33
 running on   96 total cores
 distrk:  each k-point on   24 cores,    4 groups
 distr:  one band on NCORES_PER_BAND=  12 cores,    2 groups


--------------------------------------------------------------------------------------------------------


 INCAR:
 POTCAR:   PAW_GGA Ti 08Aug2001                   
 POTCAR:   PAW_GGA Si 05Jan2001                   

 ----------------------------------------------------------------------------- 
|                                                                             |
|           W    W    AA    RRRRR   N    N  II  N    N   GGGG   !!!           |
|           W    W   A  A   R    R  NN   N  II  NN   N  G    G  !!!           |
|           W    W  A    A  R    R  N N  N  II  N N  N  G       !!!           |
|           W WW W  AAAAAA  RRRRR   N  N N  II  N  N N  G  GGG   !            |
|           WW  WW  A    A  R   R   N   NN  II  N   NN  G    G                |
|           W    W  A    A  R    R  N    N  II  N    N   GGGG   !!!           |
|                                                                             |
|      You have enabled k-point parallelism (KPAR>1).                         |
|      This developmental code was originally  written by Paul Kent at ORNL,  |
|      and carefully double checked in Vienna.                                |
|      GW as well as linear response parallelism added by Martijn Marsman     |
|      and Georg Kresse.                                                      |
|      Carefully verify results versus KPAR=1.                                |
|      Report problems to Paul Kent and Vienna.                               |
|                                                                             |
 ----------------------------------------------------------------------------- 

 POTCAR:   PAW_GGA Ti 08Aug2001                   
   VRHFIN =Ti: d3 s1                                                            
   LEXCH  = 91                                                                  
   EATOM  =    95.1745 eV,    6.9951 Ry                                         
                                                                                
   TITEL  = PAW_GGA Ti 08Aug2001                                                
   LULTRA =        F    use ultrasoft PP ?                                      
   IUNSCR =        1    unscreen: 0-lin 1-nonlin 2-no                           
   RPACOR =    2.200    partial core radius                                     
   POMASS =   47.880; ZVAL   =    4.000    mass and valenz                      
   RCORE  =    2.800    outmost cutoff radius                                   
   RWIGS  =    2.500; RWIGS  =    1.323    wigner-seitz radius (au A)           
   ENMAX  =  178.367; ENMIN  =  133.775 eV                                      
   RCLOC  =    2.215    cutoff for local pot                                    
   LCOR   =        T    correct aug charges                                     
   LPAW   =        T    paw PP                                                  
   EAUG   =  328.883                                                            
   DEXC   =    -.021                                                            
   RMAX   =    3.452    core radius for proj-oper                               
   RAUG   =    1.300    factor for augmentation sphere                          
   RDEP   =    2.885    radius for radial grids                                 
   QCUT   =   -3.621; QGAM   =    7.241    optimization parameters              
                                                                                
   Description                                                                  
     l     E      TYP  RCUT    TYP  RCUT                                        
     2   .000     23  2.800                                                     
     2   .000     23  2.800                                                     
     0   .000     23  2.800                                                     
     0  1.500     23  2.800                                                     
     1  -.400     23  2.800                                                     
     3   .000      7   .000                                                     
  local pseudopotential read in
  partial core-charges read in
  atomic valenz-charges read in
  non local Contribution for L=           2  read in
    real space projection operators read in
  non local Contribution for L=           2  read in
    real space projection operators read in
  non local Contribution for L=           0  read in
    real space projection operators read in
  non local Contribution for L=           0  read in
    real space projection operators read in
  non local Contribution for L=           1  read in
    real space projection operators read in
    PAW grid and wavefunctions read in

   number of l-projection  operators is LMAX  =           5
   number of lm-projection operators is LMMAX =          15

 POTCAR:   PAW_GGA Si 05Jan2001                   
   VRHFIN =Si: s2p2                                                             
   LEXCH  = 91                                                                  
   EATOM  =   103.3076 eV,    7.5929 Ry                                         
                                                                                
   TITEL  = PAW_GGA Si 05Jan2001                                                
   LULTRA =        F    use ultrasoft PP ?                                      
   IUNSCR =        1    unscreen: 0-lin 1-nonlin 2-no                           
   RPACOR =    1.500    partial core radius                                     
   POMASS =   28.085; ZVAL   =    4.000    mass and valenz                      
   RCORE  =    1.900    outmost cutoff radius                                   
   RWIGS  =    2.480; RWIGS  =    1.312    wigner-seitz radius (au A)           
   ENMAX  =  245.435; ENMIN  =  184.076 eV                                      
   ICORE  =        2    local potential                                         
   LCOR   =        T    correct aug charges                                     
   LPAW   =        T    paw PP                                                  
   EAUG   =  322.069                                                            
   DEXC   =    -.001                                                            
   RMAX   =    2.943    core radius for proj-oper                               
   RAUG   =    1.300    factor for augmentation sphere                          
   RDEP   =    1.993    core radius for depl-charge                             
   QCUT   =   -4.247; QGAM   =    8.494    optimization parameters              
                                                                                
   Description                                                                  
     l     E      TYP  RCUT    TYP  RCUT                                        
     0   .000     23  1.900                                                     
     0   .000     23  1.900                                                     
     1   .000     23  1.900                                                     
     1   .000     23  1.900                                                     
     2   .000      7  1.900                                                     
  local pseudopotential read in
  partial core-charges read in
  atomic valenz-charges read in
  non local Contribution for L=           0  read in
    real space projection operators read in
  non local Contribution for L=           0  read in
    real space projection operators read in
  non local Contribution for L=           1  read in
    real space projection operators read in
  non local Contribution for L=           1  read in
    real space projection operators read in
    PAW grid and wavefunctions read in

   number of l-projection  operators is LMAX  =           4
   number of lm-projection operators is LMMAX =           8


 ----------------------------------------------------------------------------- 
|                                                                             |
|  ADVICE TO THIS USER RUNNING 'VASP/VAMP'   (HEAR YOUR MASTER'S VOICE ...):  |
|                                                                             |
|      You have a (more or less) 'large supercell' and for larger cells       |
|      it might be more efficient to use real space projection operators      |
|      So try LREAL= Auto  in the INCAR   file.                               |
|      Mind: If you want to do a very accurate calculations keep the          |
|      reciprocal projection scheme          (i.e. LREAL=.FALSE.)             |
|                                                                             |
 ----------------------------------------------------------------------------- 

 PAW_GGA Ti 08Aug2001                   :
 energy of atom  1       EATOM=  -95.1745
 kinetic energy error for atom=    0.0002 (will be added to EATOM!!)
 PAW_GGA Si 05Jan2001                   :
 energy of atom  2       EATOM= -103.3076
 kinetic energy error for atom=    0.0009 (will be added to EATOM!!)


 POSCAR: TiSi2                                   
  positions in direct lattice
  No initial velocities read in
 exchange correlation table for  LEXCH =        7
   RHO(1)=    0.500       N(1)  =     2000
   RHO(2)=  100.500       N(2)  =     4000



--------------------------------------------------------------------------------------------------------


 ion  position               nearest neighbor table
   1  0.000  0.000  0.000-  16 2.56  24 2.56  19 2.56  11 2.56  22 2.76  22 2.76  21 2.76  21 2.76
                            10 2.79   9 2.79
   2  0.750  0.750  0.250-  10 2.56  13 2.56  18 2.56  21 2.56  23 2.76  24 2.76  23 2.76  24 2.76
                            11 2.79  12 2.79
   3  0.000  0.500  0.500-  15 2.56  23 2.56  20 2.56  12 2.56  17 2.76  17 2.76  18 2.76  18 2.76
                            13 2.79  14 2.79
   4  0.750  0.250  0.750-  14 2.56  22 2.56  17 2.56   9 2.56  20 2.76  20 2.76  19 2.76  19 2.76
                            15 2.79  16 2.79
   5  0.500  0.000  0.500-  16 2.56  24 2.56  19 2.56  11 2.56  14 2.76  14 2.76  13 2.76  13 2.76
                            18 2.79  17 2.79
   6  0.250  0.750  0.750-  10 2.56  13 2.56  18 2.56  21 2.56  15 2.76  16 2.76  15 2.76  16 2.76
                            19 2.79  20 2.79
   7  0.500  0.500  0.000-  15 2.56  23 2.56  20 2.56  12 2.56   9 2.76   9 2.76  10 2.76  10 2.76
                            21 2.79  22 2.79
   8  0.250  0.250  0.250-  14 2.56  22 2.56  17 2.56   9 2.56  12 2.76  12 2.76  11 2.76  11 2.76
                            23 2.79  24 2.79
   9  0.000  0.337  0.000-  12 2.54  20 2.54   4 2.56   8 2.56  10 2.70   7 2.76   7 2.76   1 2.79
                            22 2.80  22 2.80
  10  0.000  0.663  0.000-  15 2.54  23 2.54   2 2.56   6 2.56   9 2.70   7 2.76   7 2.76   1 2.79
                            21 2.80  21 2.80
  11  0.750  0.087  0.250-  14 2.54  22 2.54   1 2.56   5 2.56  12 2.70   8 2.76   8 2.76   2 2.79
                            24 2.80  24 2.80
  12  0.750  0.413  0.250-   9 2.54  17 2.54   3 2.56   7 2.56  11 2.70   8 2.76   8 2.76   2 2.79
                            23 2.80  23 2.80
  13  0.000  0.837  0.500-  16 2.54  24 2.54   2 2.56   6 2.56  14 2.70   5 2.76   5 2.76   3 2.79
                            18 2.80  18 2.80
  14  0.000  0.163  0.500-  11 2.54  19 2.54   4 2.56   8 2.56  13 2.70   5 2.76   5 2.76   3 2.79
                            17 2.80  17 2.80
  15  0.750  0.587  0.750-  10 2.54  18 2.54   3 2.56   7 2.56  16 2.70   6 2.76   6 2.76   4 2.79
                            20 2.80  20 2.80
  16  0.750  0.913  0.750-  13 2.54  21 2.54   1 2.56   5 2.56  15 2.70   6 2.76   6 2.76   4 2.79
                            19 2.80  19 2.80
  17  0.500  0.337  0.500-  12 2.54  20 2.54   4 2.56   8 2.56  18 2.70   3 2.76   3 2.76   5 2.79
                            14 2.80  14 2.80
  18  0.500  0.663  0.500-  15 2.54  23 2.54   2 2.56   6 2.56  17 2.70   3 2.76   3 2.76   5 2.79
                            13 2.80  13 2.80
  19  0.250  0.087  0.750-  14 2.54  22 2.54   1 2.56   5 2.56  20 2.70   4 2.76   4 2.76   6 2.79
                            16 2.80  16 2.80
  20  0.250  0.413  0.750-   9 2.54  17 2.54   3 2.56   7 2.56  19 2.70   4 2.76   4 2.76   6 2.79
                            15 2.80  15 2.80
  21  0.500  0.837  0.000-  16 2.54  24 2.54   2 2.56   6 2.56  22 2.70   1 2.76   1 2.76   7 2.79
                            10 2.80  10 2.80
  22  0.500  0.163  0.000-  11 2.54  19 2.54   4 2.56   8 2.56  21 2.70   1 2.76   1 2.76   7 2.79
                             9 2.80   9 2.80
  23  0.250  0.587  0.250-  10 2.54  18 2.54   3 2.56   7 2.56  24 2.70   2 2.76   2 2.76   8 2.79
                            12 2.80  12 2.80
  24  0.250  0.913  0.250-  13 2.54  21 2.54   1 2.56   5 2.56  23 2.70   2 2.76   2 2.76   8 2.79
                            11 2.80  11 2.80

  LATTYP: Found a simple orthorhombic cell.
 ALAT       =     4.8107531746
 B/A-ratio  =     1.7208461483
 C/A-ratio  =     1.7804386732
  
  Lattice vectors:
  
 A1 = (   4.8107531746,   0.0000000000,   0.0000000000)
 A2 = (   0.0000000000,   8.2785660707,   0.0000000000)
 A3 = (   0.0000000000,   0.0000000000,   8.5652509991)


Analysis of symmetry for initial positions (statically):
=====================================================================
 Subroutine PRICEL returns following result:
 
  LATTYP: Found a face centered orthorhombic cell.
 ALAT       =     4.8107531746
 B/A-ratio  =     1.7208461483
 C/A-ratio  =     1.7804386732
  
  Lattice vectors:
  
 A1 = (   0.0000000000,   4.1392830354,  -4.2826254995)
 A2 = (  -2.4053765873,   0.0000000000,  -4.2826254995)
 A3 = (  -2.4053765873,   4.1392830354,   0.0000000000)
 
   4 primitive cells build up your supercell.
 

 Routine SETGRP: Setting up the symmetry group for a 
 simple orthorhombic supercell.


 Subroutine GETGRP returns: Found  8 space group operations
 (whereof  4 operations were pure point group operations)
 out of a pool of  8 trial point group operations.


The static configuration has the point symmetry D_2 .
 The point group associated with its full space group is D_2h.


Analysis of symmetry for dynamics (positions and initial velocities):
=====================================================================
 Subroutine PRICEL returns following result:
 
  LATTYP: Found a face centered orthorhombic cell.
 ALAT       =     4.8107531746
 B/A-ratio  =     1.7208461483
 C/A-ratio  =     1.7804386732
  
  Lattice vectors:
  
 A1 = (   0.0000000000,   4.1392830354,  -4.2826254995)
 A2 = (  -2.4053765873,   0.0000000000,  -4.2826254995)
 A3 = (  -2.4053765873,   4.1392830354,   0.0000000000)
 
   4 primitive cells build up your supercell.
 

 Routine SETGRP: Setting up the symmetry group for a 
 simple orthorhombic supercell.


 Subroutine GETGRP returns: Found  8 space group operations
 (whereof  4 operations were pure point group operations)
 out of a pool of  8 trial point group operations.


The dynamic configuration has the point symmetry D_2 .
 The point group associated with its full space group is D_2h.


 KPOINTS: Automatic                               

Automatic generation of k-mesh.
Space group operators:
 irot       det(A)        alpha          n_x          n_y          n_z        tau_x        tau_y        tau_z
    1     1.000000     0.000001     1.000000     0.000000     0.000000    -0.000000     0.000000    -0.000000
    2     1.000000   179.999999     0.000000     0.000000     1.000000    -0.000000     0.000000    -0.000000
    3     1.000000   179.999999     0.000000     1.000000     0.000000    -0.000000     0.000000    -0.000000
    4     1.000000   180.000000     1.000000     0.000000     0.000000    -0.000000     0.000000    -0.000000
    5    -1.000000     0.000001     1.000000     0.000000     0.000000    -0.250000     0.250000    -0.250000
    6    -1.000000   179.999999     0.000000     0.000000     1.000000    -0.250000     0.250000    -0.250000
    7    -1.000000   179.999999     0.000000     1.000000     0.000000    -0.250000     0.250000    -0.250000
    8    -1.000000   180.000000     1.000000     0.000000     0.000000    -0.250000     0.250000    -0.250000
 
 Subroutine IBZKPT returns following result:
 ===========================================
 
 Found    175 irreducible k-points:
 
 Following reciprocal coordinates:
            Coordinates               Weight
  0.000000  0.000000  0.000000      1.000000
  0.083333  0.000000  0.000000      2.000000
  0.166667  0.000000  0.000000      2.000000
  0.250000  0.000000  0.000000      2.000000
  0.333333  0.000000  0.000000      2.000000
  0.416667  0.000000  0.000000      2.000000
  0.500000  0.000000  0.000000      1.000000
  0.000000  0.125000  0.000000      2.000000
  0.083333  0.125000  0.000000      4.000000
  0.166667  0.125000  0.000000      4.000000
  0.250000  0.125000  0.000000      4.000000
  0.333333  0.125000  0.000000      4.000000
  0.416667  0.125000  0.000000      4.000000
  0.500000  0.125000  0.000000      2.000000
  0.000000  0.250000  0.000000      2.000000
  0.083333  0.250000  0.000000      4.000000
  0.166667  0.250000  0.000000      4.000000
  0.250000  0.250000  0.000000      4.000000
  0.333333  0.250000  0.000000      4.000000
  0.416667  0.250000  0.000000      4.000000
  0.500000  0.250000  0.000000      2.000000
  0.000000  0.375000  0.000000      2.000000
  0.083333  0.375000  0.000000      4.000000
  0.166667  0.375000  0.000000      4.000000
  0.250000  0.375000  0.000000      4.000000
  0.333333  0.375000  0.000000      4.000000
  0.416667  0.375000  0.000000      4.000000
  0.500000  0.375000  0.000000      2.000000
  0.000000  0.500000  0.000000      1.000000
  0.083333  0.500000  0.000000      2.000000
  0.166667  0.500000  0.000000      2.000000
  0.250000  0.500000  0.000000      2.000000
  0.333333  0.500000  0.000000      2.000000
  0.416667  0.500000  0.000000      2.000000
  0.500000  0.500000  0.000000      1.000000
  0.000000  0.000000  0.125000      2.000000
  0.083333  0.000000  0.125000      4.000000
  0.166667  0.000000  0.125000      4.000000
  0.250000  0.000000  0.125000      4.000000
  0.333333  0.000000  0.125000      4.000000
  0.416667  0.000000  0.125000      4.000000
  0.500000  0.000000  0.125000      2.000000
  0.000000  0.125000  0.125000      4.000000
  0.083333  0.125000  0.125000      8.000000
  0.166667  0.125000  0.125000      8.000000
  0.250000  0.125000  0.125000      8.000000
  0.333333  0.125000  0.125000      8.000000
  0.416667  0.125000  0.125000      8.000000
  0.500000  0.125000  0.125000      4.000000
  0.000000  0.250000  0.125000      4.000000
  0.083333  0.250000  0.125000      8.000000
  0.166667  0.250000  0.125000      8.000000
  0.250000  0.250000  0.125000      8.000000
  0.333333  0.250000  0.125000      8.000000
  0.416667  0.250000  0.125000      8.000000
  0.500000  0.250000  0.125000      4.000000
  0.000000  0.375000  0.125000      4.000000
  0.083333  0.375000  0.125000      8.000000
  0.166667  0.375000  0.125000      8.000000
  0.250000  0.375000  0.125000      8.000000
  0.333333  0.375000  0.125000      8.000000
  0.416667  0.375000  0.125000      8.000000
  0.500000  0.375000  0.125000      4.000000
  0.000000  0.500000  0.125000      2.000000
  0.083333  0.500000  0.125000      4.000000
  0.166667  0.500000  0.125000      4.000000
  0.250000  0.500000  0.125000      4.000000
  0.333333  0.500000  0.125000      4.000000
  0.416667  0.500000  0.125000      4.000000
  0.500000  0.500000  0.125000      2.000000
  0.000000  0.000000  0.250000      2.000000
  0.083333  0.000000  0.250000      4.000000
  0.166667  0.000000  0.250000      4.000000
  0.250000  0.000000  0.250000      4.000000
  0.333333  0.000000  0.250000      4.000000
  0.416667  0.000000  0.250000      4.000000
  0.500000  0.000000  0.250000      2.000000
  0.000000  0.125000  0.250000      4.000000
  0.083333  0.125000  0.250000      8.000000
  0.166667  0.125000  0.250000      8.000000
  0.250000  0.125000  0.250000      8.000000
  0.333333  0.125000  0.250000      8.000000
  0.416667  0.125000  0.250000      8.000000
  0.500000  0.125000  0.250000      4.000000
  0.000000  0.250000  0.250000      4.000000
  0.083333  0.250000  0.250000      8.000000
  0.166667  0.250000  0.250000      8.000000
  0.250000  0.250000  0.250000      8.000000
  0.333333  0.250000  0.250000      8.000000
  0.416667  0.250000  0.250000      8.000000
  0.500000  0.250000  0.250000      4.000000
  0.000000  0.375000  0.250000      4.000000
  0.083333  0.375000  0.250000      8.000000
  0.166667  0.375000  0.250000      8.000000
  0.250000  0.375000  0.250000      8.000000
  0.333333  0.375000  0.250000      8.000000
  0.416667  0.375000  0.250000      8.000000
  0.500000  0.375000  0.250000      4.000000
  0.000000  0.500000  0.250000      2.000000
  0.083333  0.500000  0.250000      4.000000
  0.166667  0.500000  0.250000      4.000000
  0.250000  0.500000  0.250000      4.000000
  0.333333  0.500000  0.250000      4.000000
  0.416667  0.500000  0.250000      4.000000
  0.500000  0.500000  0.250000      2.000000
  0.000000  0.000000  0.375000      2.000000
  0.083333  0.000000  0.375000      4.000000
  0.166667  0.000000  0.375000      4.000000
  0.250000  0.000000  0.375000      4.000000
  0.333333  0.000000  0.375000      4.000000
  0.416667  0.000000  0.375000      4.000000
  0.500000  0.000000  0.375000      2.000000
  0.000000  0.125000  0.375000      4.000000
  0.083333  0.125000  0.375000      8.000000
  0.166667  0.125000  0.375000      8.000000
  0.250000  0.125000  0.375000      8.000000
  0.333333  0.125000  0.375000      8.000000
  0.416667  0.125000  0.375000      8.000000
  0.500000  0.125000  0.375000      4.000000
  0.000000  0.250000  0.375000      4.000000
  0.083333  0.250000  0.375000      8.000000
  0.166667  0.250000  0.375000      8.000000
  0.250000  0.250000  0.375000      8.000000
  0.333333  0.250000  0.375000      8.000000
  0.416667  0.250000  0.375000      8.000000
  0.500000  0.250000  0.375000      4.000000
  0.000000  0.375000  0.375000      4.000000
  0.083333  0.375000  0.375000      8.000000
  0.166667  0.375000  0.375000      8.000000
  0.250000  0.375000  0.375000      8.000000
  0.333333  0.375000  0.375000      8.000000
  0.416667  0.375000  0.375000      8.000000
  0.500000  0.375000  0.375000      4.000000
  0.000000  0.500000  0.375000      2.000000
  0.083333  0.500000  0.375000      4.000000
  0.166667  0.500000  0.375000      4.000000
  0.250000  0.500000  0.375000      4.000000
  0.333333  0.500000  0.375000      4.000000
  0.416667  0.500000  0.375000      4.000000
  0.500000  0.500000  0.375000      2.000000
  0.000000  0.000000  0.500000      1.000000
  0.083333  0.000000  0.500000      2.000000
  0.166667  0.000000  0.500000      2.000000
  0.250000  0.000000  0.500000      2.000000
  0.333333  0.000000  0.500000      2.000000
  0.416667  0.000000  0.500000      2.000000
  0.500000  0.000000  0.500000      1.000000
  0.000000  0.125000  0.500000      2.000000
  0.083333  0.125000  0.500000      4.000000
  0.166667  0.125000  0.500000      4.000000
  0.250000  0.125000  0.500000      4.000000
  0.333333  0.125000  0.500000      4.000000
  0.416667  0.125000  0.500000      4.000000
  0.500000  0.125000  0.500000      2.000000
  0.000000  0.250000  0.500000      2.000000
  0.083333  0.250000  0.500000      4.000000
  0.166667  0.250000  0.500000      4.000000
  0.250000  0.250000  0.500000      4.000000
  0.333333  0.250000  0.500000      4.000000
  0.416667  0.250000  0.500000      4.000000
  0.500000  0.250000  0.500000      2.000000
  0.000000  0.375000  0.500000      2.000000
  0.083333  0.375000  0.500000      4.000000
  0.166667  0.375000  0.500000      4.000000
  0.250000  0.375000  0.500000      4.000000
  0.333333  0.375000  0.500000      4.000000
  0.416667  0.375000  0.500000      4.000000
  0.500000  0.375000  0.500000      2.000000
  0.000000  0.500000  0.500000      1.000000
  0.083333  0.500000  0.500000      2.000000
  0.166667  0.500000  0.500000      2.000000
  0.250000  0.500000  0.500000      2.000000
  0.333333  0.500000  0.500000      2.000000
  0.416667  0.500000  0.500000      2.000000
  0.500000  0.500000  0.500000      1.000000
 
 Following cartesian coordinates:
            Coordinates               Weight
  0.000000  0.000000  0.000000      1.000000
  0.017322  0.000000  0.000000      2.000000
  0.034645  0.000000  0.000000      2.000000
  0.051967  0.000000  0.000000      2.000000
  0.069289  0.000000  0.000000      2.000000
  0.086612  0.000000  0.000000      2.000000
  0.103934  0.000000  0.000000      1.000000
  0.000000  0.015099  0.000000      2.000000
  0.017322  0.015099  0.000000      4.000000
  0.034645  0.015099  0.000000      4.000000
  0.051967  0.015099  0.000000      4.000000
  0.069289  0.015099  0.000000      4.000000
  0.086612  0.015099  0.000000      4.000000
  0.103934  0.015099  0.000000      2.000000
  0.000000  0.030198  0.000000      2.000000
  0.017322  0.030198  0.000000      4.000000
  0.034645  0.030198  0.000000      4.000000
  0.051967  0.030198  0.000000      4.000000
  0.069289  0.030198  0.000000      4.000000
  0.086612  0.030198  0.000000      4.000000
  0.103934  0.030198  0.000000      2.000000
  0.000000  0.045298  0.000000      2.000000
  0.017322  0.045298  0.000000      4.000000
  0.034645  0.045298  0.000000      4.000000
  0.051967  0.045298  0.000000      4.000000
  0.069289  0.045298  0.000000      4.000000
  0.086612  0.045298  0.000000      4.000000
  0.103934  0.045298  0.000000      2.000000
  0.000000  0.060397  0.000000      1.000000
  0.017322  0.060397  0.000000      2.000000
  0.034645  0.060397  0.000000      2.000000
  0.051967  0.060397  0.000000      2.000000
  0.069289  0.060397  0.000000      2.000000
  0.086612  0.060397  0.000000      2.000000
  0.103934  0.060397  0.000000      1.000000
  0.000000  0.000000  0.014594      2.000000
  0.017322  0.000000  0.014594      4.000000
  0.034645  0.000000  0.014594      4.000000
  0.051967  0.000000  0.014594      4.000000
  0.069289  0.000000  0.014594      4.000000
  0.086612  0.000000  0.014594      4.000000
  0.103934  0.000000  0.014594      2.000000
  0.000000  0.015099  0.014594      4.000000
  0.017322  0.015099  0.014594      8.000000
  0.034645  0.015099  0.014594      8.000000
  0.051967  0.015099  0.014594      8.000000
  0.069289  0.015099  0.014594      8.000000
  0.086612  0.015099  0.014594      8.000000
  0.103934  0.015099  0.014594      4.000000
  0.000000  0.030198  0.014594      4.000000
  0.017322  0.030198  0.014594      8.000000
  0.034645  0.030198  0.014594      8.000000
  0.051967  0.030198  0.014594      8.000000
  0.069289  0.030198  0.014594      8.000000
  0.086612  0.030198  0.014594      8.000000
  0.103934  0.030198  0.014594      4.000000
  0.000000  0.045298  0.014594      4.000000
  0.017322  0.045298  0.014594      8.000000
  0.034645  0.045298  0.014594      8.000000
  0.051967  0.045298  0.014594      8.000000
  0.069289  0.045298  0.014594      8.000000
  0.086612  0.045298  0.014594      8.000000
  0.103934  0.045298  0.014594      4.000000
  0.000000  0.060397  0.014594      2.000000
  0.017322  0.060397  0.014594      4.000000
  0.034645  0.060397  0.014594      4.000000
  0.051967  0.060397  0.014594      4.000000
  0.069289  0.060397  0.014594      4.000000
  0.086612  0.060397  0.014594      4.000000
  0.103934  0.060397  0.014594      2.000000
  0.000000  0.000000  0.029188      2.000000
  0.017322  0.000000  0.029188      4.000000
  0.034645  0.000000  0.029188      4.000000
  0.051967  0.000000  0.029188      4.000000
  0.069289  0.000000  0.029188      4.000000
  0.086612  0.000000  0.029188      4.000000
  0.103934  0.000000  0.029188      2.000000
  0.000000  0.015099  0.029188      4.000000
  0.017322  0.015099  0.029188      8.000000
  0.034645  0.015099  0.029188      8.000000
  0.051967  0.015099  0.029188      8.000000
  0.069289  0.015099  0.029188      8.000000
  0.086612  0.015099  0.029188      8.000000
  0.103934  0.015099  0.029188      4.000000
  0.000000  0.030198  0.029188      4.000000
  0.017322  0.030198  0.029188      8.000000
  0.034645  0.030198  0.029188      8.000000
  0.051967  0.030198  0.029188      8.000000
  0.069289  0.030198  0.029188      8.000000
  0.086612  0.030198  0.029188      8.000000
  0.103934  0.030198  0.029188      4.000000
  0.000000  0.045298  0.029188      4.000000
  0.017322  0.045298  0.029188      8.000000
  0.034645  0.045298  0.029188      8.000000
  0.051967  0.045298  0.029188      8.000000
  0.069289  0.045298  0.029188      8.000000
  0.086612  0.045298  0.029188      8.000000
  0.103934  0.045298  0.029188      4.000000
  0.000000  0.060397  0.029188      2.000000
  0.017322  0.060397  0.029188      4.000000
  0.034645  0.060397  0.029188      4.000000
  0.051967  0.060397  0.029188      4.000000
  0.069289  0.060397  0.029188      4.000000
  0.086612  0.060397  0.029188      4.000000
  0.103934  0.060397  0.029188      2.000000
  0.000000  0.000000  0.043782      2.000000
  0.017322  0.000000  0.043782      4.000000
  0.034645  0.000000  0.043782      4.000000
  0.051967  0.000000  0.043782      4.000000
  0.069289  0.000000  0.043782      4.000000
  0.086612  0.000000  0.043782      4.000000
  0.103934  0.000000  0.043782      2.000000
  0.000000  0.015099  0.043782      4.000000
  0.017322  0.015099  0.043782      8.000000
  0.034645  0.015099  0.043782      8.000000
  0.051967  0.015099  0.043782      8.000000
  0.069289  0.015099  0.043782      8.000000
  0.086612  0.015099  0.043782      8.000000
  0.103934  0.015099  0.043782      4.000000
  0.000000  0.030198  0.043782      4.000000
  0.017322  0.030198  0.043782      8.000000
  0.034645  0.030198  0.043782      8.000000
  0.051967  0.030198  0.043782      8.000000
  0.069289  0.030198  0.043782      8.000000
  0.086612  0.030198  0.043782      8.000000
  0.103934  0.030198  0.043782      4.000000
  0.000000  0.045298  0.043782      4.000000
  0.017322  0.045298  0.043782      8.000000
  0.034645  0.045298  0.043782      8.000000
  0.051967  0.045298  0.043782      8.000000
  0.069289  0.045298  0.043782      8.000000
  0.086612  0.045298  0.043782      8.000000
  0.103934  0.045298  0.043782      4.000000
  0.000000  0.060397  0.043782      2.000000
  0.017322  0.060397  0.043782      4.000000
  0.034645  0.060397  0.043782      4.000000
  0.051967  0.060397  0.043782      4.000000
  0.069289  0.060397  0.043782      4.000000
  0.086612  0.060397  0.043782      4.000000
  0.103934  0.060397  0.043782      2.000000
  0.000000  0.000000  0.058375      1.000000
  0.017322  0.000000  0.058375      2.000000
  0.034645  0.000000  0.058375      2.000000
  0.051967  0.000000  0.058375      2.000000
  0.069289  0.000000  0.058375      2.000000
  0.086612  0.000000  0.058375      2.000000
  0.103934  0.000000  0.058375      1.000000
  0.000000  0.015099  0.058375      2.000000
  0.017322  0.015099  0.058375      4.000000
  0.034645  0.015099  0.058375      4.000000
  0.051967  0.015099  0.058375      4.000000
  0.069289  0.015099  0.058375      4.000000
  0.086612  0.015099  0.058375      4.000000
  0.103934  0.015099  0.058375      2.000000
  0.000000  0.030198  0.058375      2.000000
  0.017322  0.030198  0.058375      4.000000
  0.034645  0.030198  0.058375      4.000000
  0.051967  0.030198  0.058375      4.000000
  0.069289  0.030198  0.058375      4.000000
  0.086612  0.030198  0.058375      4.000000
  0.103934  0.030198  0.058375      2.000000
  0.000000  0.045298  0.058375      2.000000
  0.017322  0.045298  0.058375      4.000000
  0.034645  0.045298  0.058375      4.000000
  0.051967  0.045298  0.058375      4.000000
  0.069289  0.045298  0.058375      4.000000
  0.086612  0.045298  0.058375      4.000000
  0.103934  0.045298  0.058375      2.000000
  0.000000  0.060397  0.058375      1.000000
  0.017322  0.060397  0.058375      2.000000
  0.034645  0.060397  0.058375      2.000000
  0.051967  0.060397  0.058375      2.000000
  0.069289  0.060397  0.058375      2.000000
  0.086612  0.060397  0.058375      2.000000
  0.103934  0.060397  0.058375      1.000000
 


--------------------------------------------------------------------------------------------------------




 Dimension of arrays:
   k-points           NKPTS =    175   k-points in BZ     NKDIM =    175   number of bands    NBANDS=     62
   number of dos      NEDOS =    301   number of ions     NIONS =     24
   non local maximal  LDIM  =      5   non local SUM 2l+1 LMDIM =     15
   total plane-waves  NPLWV =  64512
   max r-space proj   IRMAX =      1   max aug-charges    IRDMAX=  13259
   dimension x,y,z NGX =    28 NGY =   48 NGZ =   48
   dimension x,y,z NGXF=    56 NGYF=   96 NGZF=   96
   support grid    NGXF=    56 NGYF=   96 NGZF=   96
   ions per type =               8  16
 NGX,Y,Z   is equivalent  to a cutoff of   9.68,  9.64,  9.32 a.u.
 NGXF,Y,Z  is equivalent  to a cutoff of  19.35, 19.28, 18.63 a.u.


 I would recommend the setting:
   dimension x,y,z NGX =    25 NGY =   43 NGZ =   44
 SYSTEM =  AlO                                     
 POSCAR =  TiSi2                                   

 Startparameter for this run:
   NWRITE =      2    write-flag & timer
   PREC   = n         normal or accurate (medium, high low for compatibility)
   ISTART =      0    job   : 0-new  1-cont  2-samecut
   ICHARG =      2    charge: 1-file 2-atom 10-const
   ISPIN  =      1    spin polarized calculation?
   LNONCOLLINEAR =      F non collinear calculations
   LSORBIT =      F    spin-orbit coupling
   INIWAV =      1    electr: 0-lowe 1-rand  2-diag
   LASPH  =      F    aspherical Exc in radial PAW
   METAGGA=      F    non-selfconsistent MetaGGA calc.

 Electronic Relaxation 1
   ENCUT  =  450.0 eV  33.07 Ry    5.75 a.u.   8.32 14.32 14.82*2*pi/ulx,y,z
   ENINI  =  450.0     initial cutoff
   ENAUG  =  328.9 eV  augmentation charge cutoff
   NELM   =     40;   NELMIN=  4; NELMDL= -5     # of ELM steps 
   EDIFF  = 0.1E-05   stopping-criterion for ELM
   LREAL  =      F    real-space projection
   NLSPLINE    = F    spline interpolate recip. space projectors
   LCOMPAT=      F    compatible to vasp.4.4
   GGA_COMPAT  = T    GGA compatible to vasp.4.4-vasp.4.6
   LMAXPAW     = -100 max onsite density
   LMAXMIX     =    2 max onsite mixed and CHGCAR
   VOSKOWN=      0    Vosko Wilk Nusair interpolation
   ROPT   =    0.00000   0.00000
 Ionic relaxation
   EDIFFG = -.1E-03   stopping-criterion for IOM
   NSW    =    100    number of steps for IOM
   NBLOCK =      1;   KBLOCK =    100    inner block; outer block 
   IBRION =      2    ionic relax: 0-MD 1-quasi-New 2-CG
   NFREE  =      1    steps in history (QN), initial steepest desc. (CG)
   ISIF   =      2    stress and relaxation
   IWAVPR =     11    prediction:  0-non 1-charg 2-wave 3-comb
   ISYM   =      2    0-nonsym 1-usesym 2-fastsym
   LCORR  =      T    Harris-Foulkes like correction to forces

   POTIM  = 0.3000    time-step for ionic-motion
   TEIN   =    0.0    initial temperature
   TEBEG  =    0.0;   TEEND  =   0.0 temperature during run
   SMASS  =  -3.00    Nose mass-parameter (am)
   estimated Nose-frequenzy (Omega)   =  0.10E-29 period in steps =****** mass=  -0.529E-27a.u.
   SCALEE = 1.0000    scale energy and forces
   NPACO  =    256;   APACO  = 16.0  distance and # of slots for P.C.
   PSTRESS=    0.0 pullay stress

  Mass of Ions in am
   POMASS =  47.88 28.09
  Ionic Valenz
   ZVAL   =   4.00  4.00
  Atomic Wigner-Seitz radii
   RWIGS  =  -1.00 -1.00
  virtual crystal weights 
   VCA    =   1.00  1.00
   NELECT =      96.0000    total number of electrons
   NUPDOWN=      -1.0000    fix difference up-down

 DOS related values:
   EMIN   =  10.00;   EMAX   =-10.00  energy-range for DOS
   EFERMI =   0.00
   ISMEAR =    -1;   SIGMA  =   0.03  broadening in eV -4-tet -1-fermi 0-gaus

 Electronic relaxation 2 (details)
   IALGO  =     68    algorithm
   LDIAG  =      T    sub-space diagonalisation (order eigenvalues)
   LSUBROT=      F    optimize rotation matrix (better conditioning)
   TURBO    =      0    0=normal 1=particle mesh
   IRESTART =      0    0=no restart 2=restart with 2 vectors
   NREBOOT  =      0    no. of reboots
   NMIN     =      0    reboot dimension
   EREF     =   0.00    reference energy to select bands
   IMIX   =      4    mixing-type and parameters
     AMIX     =   0.40;   BMIX     =  1.00
     AMIX_MAG =   1.60;   BMIX_MAG =  1.00
     AMIN     =   0.10
     WC   =   100.;   INIMIX=   1;  MIXPRE=   1;  MAXMIX=  40

 Intra band minimization:
   WEIMIN = 0.0010     energy-eigenvalue tresh-hold
   EBREAK =  0.40E-08  absolut break condition
   DEPER  =   0.30     relativ break condition  

   TIME   =   0.40     timestep for ELM

  volume/ion in A,a.u.               =      14.21        95.92
  Fermi-wavevector in a.u.,A,eV,Ry     =   1.072826  2.027346 15.659692  1.150955
  Thomas-Fermi vector in A             =   2.208607

 Write flags
   LWAVE  =      F    write WAVECAR
   LCHARG =      F    write CHGCAR
   LVTOT  =      F    write LOCPOT, total local potential
   LVHAR  =      F    write LOCPOT, Hartree potential only
   LELF   =      F    write electronic localiz. function (ELF)
   LORBIT =      0    0 simple, 1 ext, 2 COOP (PROOUT)


 Dipole corrections
   LMONO  =      F    monopole corrections only (constant potential shift)
   LDIPOL =      F    correct potential (dipole corrections)
   IDIPOL =      0    1-x, 2-y, 3-z, 4-all directions 
   EPSILON=  1.0000000 bulk dielectric constant

 Exchange correlation treatment:
   GGA     =    91    GGA type
   LEXCH   =     7    internal setting for exchange type
   VOSKOWN=      0    Vosko Wilk Nusair interpolation
   LHFCALC =     F    Hartree Fock is set to
   LHFONE  =     F    Hartree Fock one center treatment
   AEXX    =    0.0000 exact exchange contribution

 Linear response parameters
   LEPSILON=     F    determine dielectric tensor
   LRPA    =     F    only Hartree local field effects (RPA)
   LNABLA  =     F    use nabla operator in PAW spheres
   LVEL    =     F    velocity operator in full k-point grid
   LINTERFAST=   F  fast interpolation
   KINTER  =     0    interpolate to denser k-point grid
   CSHIFT  =0.1000    complex shift for real part using Kramers Kronig
   OMEGAMAX=  -1.0    maximum frequency
   DEG_THRESHOLD= 0.2000000E-02 threshold for treating states as degnerate
   RTIME   =    0.100 relaxation time in fs

 Orbital magnetization related:
   ORBITALMAG=     F  switch on orbital magnetization
   LCHIMAG   =     F  perturbation theory with respect to B field
   DQ        =  0.001000  dq finite difference perturbation B field



--------------------------------------------------------------------------------------------------------


 conjugate gradient relaxation of ions
 charge density and potential will be updated during run
 non-spin polarized calculation
 RMM-DIIS sequential band-by-band and
  variant of blocked Davidson during initial phase
 perform sub-space diagonalisation
    before iterative eigenvector-optimisation
 modified Broyden-mixing scheme, WC =      100.0
 initial mixing is a Kerker type mixing with AMIX =  0.4000 and BMIX =      1.0000
 Hartree-type preconditioning will be used
 using additional bands           14
 reciprocal scheme for non local part
 use partial core corrections
 calculate Harris-corrections to forces   (improved forces if not selfconsistent)
 use gradient corrections 
 use of overlap-Matrix (Vanderbilt PP)
 Fermi-smearing in eV        SIGMA  =   0.03


--------------------------------------------------------------------------------------------------------


  energy-cutoff  :      450.00
  volume of cell :      341.12
      direct lattice vectors                 reciprocal lattice vectors
     4.810753175  0.000000000  0.000000000     0.207867659  0.000000000  0.000000000
     0.000000000  8.278566071  0.000000000     0.000000000  0.120793866  0.000000000
     0.000000000  0.000000000  8.565250999     0.000000000  0.000000000  0.116750811

  length of vectors
     4.810753175  8.278566071  8.565250999     0.207867659  0.120793866  0.116750811



 k-points in units of 2pi/SCALE and weight: Automatic                               
   0.00000000  0.00000000  0.00000000       0.001
   0.01732230  0.00000000  0.00000000       0.003
   0.03464461  0.00000000  0.00000000       0.003
   0.05196691  0.00000000  0.00000000       0.003
   0.06928922  0.00000000  0.00000000       0.003
   0.08661152  0.00000000  0.00000000       0.003
   0.10393383  0.00000000  0.00000000       0.001
   0.00000000  0.01509923  0.00000000       0.003
   0.01732230  0.01509923  0.00000000       0.005
   0.03464461  0.01509923  0.00000000       0.005
   0.05196691  0.01509923  0.00000000       0.005
   0.06928922  0.01509923  0.00000000       0.005
   0.08661152  0.01509923  0.00000000       0.005
   0.10393383  0.01509923  0.00000000       0.003
   0.00000000  0.03019847  0.00000000       0.003
   0.01732230  0.03019847  0.00000000       0.005
   0.03464461  0.03019847  0.00000000       0.005
   0.05196691  0.03019847  0.00000000       0.005
   0.06928922  0.03019847  0.00000000       0.005
   0.08661152  0.03019847  0.00000000       0.005
   0.10393383  0.03019847  0.00000000       0.003
   0.00000000  0.04529770  0.00000000       0.003
   0.01732230  0.04529770  0.00000000       0.005
   0.03464461  0.04529770  0.00000000       0.005
   0.05196691  0.04529770  0.00000000       0.005
   0.06928922  0.04529770  0.00000000       0.005
   0.08661152  0.04529770  0.00000000       0.005
   0.10393383  0.04529770  0.00000000       0.003
   0.00000000  0.06039693  0.00000000       0.001
   0.01732230  0.06039693  0.00000000       0.003
   0.03464461  0.06039693  0.00000000       0.003
   0.05196691  0.06039693  0.00000000       0.003
   0.06928922  0.06039693  0.00000000       0.003
   0.08661152  0.06039693  0.00000000       0.003
   0.10393383  0.06039693  0.00000000       0.001
   0.00000000  0.00000000  0.01459385       0.003
   0.01732230  0.00000000  0.01459385       0.005
   0.03464461  0.00000000  0.01459385       0.005
   0.05196691  0.00000000  0.01459385       0.005
   0.06928922  0.00000000  0.01459385       0.005
   0.08661152  0.00000000  0.01459385       0.005
   0.10393383  0.00000000  0.01459385       0.003
   0.00000000  0.01509923  0.01459385       0.005
   0.01732230  0.01509923  0.01459385       0.010
   0.03464461  0.01509923  0.01459385       0.010
   0.05196691  0.01509923  0.01459385       0.010
   0.06928922  0.01509923  0.01459385       0.010
   0.08661152  0.01509923  0.01459385       0.010
   0.10393383  0.01509923  0.01459385       0.005
   0.00000000  0.03019847  0.01459385       0.005
   0.01732230  0.03019847  0.01459385       0.010
   0.03464461  0.03019847  0.01459385       0.010
   0.05196691  0.03019847  0.01459385       0.010
   0.06928922  0.03019847  0.01459385       0.010
   0.08661152  0.03019847  0.01459385       0.010
   0.10393383  0.03019847  0.01459385       0.005
   0.00000000  0.04529770  0.01459385       0.005
   0.01732230  0.04529770  0.01459385       0.010
   0.03464461  0.04529770  0.01459385       0.010
   0.05196691  0.04529770  0.01459385       0.010
   0.06928922  0.04529770  0.01459385       0.010
   0.08661152  0.04529770  0.01459385       0.010
   0.10393383  0.04529770  0.01459385       0.005
   0.00000000  0.06039693  0.01459385       0.003
   0.01732230  0.06039693  0.01459385       0.005
   0.03464461  0.06039693  0.01459385       0.005
   0.05196691  0.06039693  0.01459385       0.005
   0.06928922  0.06039693  0.01459385       0.005
   0.08661152  0.06039693  0.01459385       0.005
   0.10393383  0.06039693  0.01459385       0.003
   0.00000000  0.00000000  0.02918770       0.003
   0.01732230  0.00000000  0.02918770       0.005
   0.03464461  0.00000000  0.02918770       0.005
   0.05196691  0.00000000  0.02918770       0.005
   0.06928922  0.00000000  0.02918770       0.005
   0.08661152  0.00000000  0.02918770       0.005
   0.10393383  0.00000000  0.02918770       0.003
   0.00000000  0.01509923  0.02918770       0.005
   0.01732230  0.01509923  0.02918770       0.010
   0.03464461  0.01509923  0.02918770       0.010
   0.05196691  0.01509923  0.02918770       0.010
   0.06928922  0.01509923  0.02918770       0.010
   0.08661152  0.01509923  0.02918770       0.010
   0.10393383  0.01509923  0.02918770       0.005
   0.00000000  0.03019847  0.02918770       0.005
   0.01732230  0.03019847  0.02918770       0.010
   0.03464461  0.03019847  0.02918770       0.010
   0.05196691  0.03019847  0.02918770       0.010
   0.06928922  0.03019847  0.02918770       0.010
   0.08661152  0.03019847  0.02918770       0.010
   0.10393383  0.03019847  0.02918770       0.005
   0.00000000  0.04529770  0.02918770       0.005
   0.01732230  0.04529770  0.02918770       0.010
   0.03464461  0.04529770  0.02918770       0.010
   0.05196691  0.04529770  0.02918770       0.010
   0.06928922  0.04529770  0.02918770       0.010
   0.08661152  0.04529770  0.02918770       0.010
   0.10393383  0.04529770  0.02918770       0.005
   0.00000000  0.06039693  0.02918770       0.003
   0.01732230  0.06039693  0.02918770       0.005
   0.03464461  0.06039693  0.02918770       0.005
   0.05196691  0.06039693  0.02918770       0.005
   0.06928922  0.06039693  0.02918770       0.005
   0.08661152  0.06039693  0.02918770       0.005
   0.10393383  0.06039693  0.02918770       0.003
   0.00000000  0.00000000  0.04378155       0.003
   0.01732230  0.00000000  0.04378155       0.005
   0.03464461  0.00000000  0.04378155       0.005
   0.05196691  0.00000000  0.04378155       0.005
   0.06928922  0.00000000  0.04378155       0.005
   0.08661152  0.00000000  0.04378155       0.005
   0.10393383  0.00000000  0.04378155       0.003
   0.00000000  0.01509923  0.04378155       0.005
   0.01732230  0.01509923  0.04378155       0.010
   0.03464461  0.01509923  0.04378155       0.010
   0.05196691  0.01509923  0.04378155       0.010
   0.06928922  0.01509923  0.04378155       0.010
   0.08661152  0.01509923  0.04378155       0.010
   0.10393383  0.01509923  0.04378155       0.005
   0.00000000  0.03019847  0.04378155       0.005
   0.01732230  0.03019847  0.04378155       0.010
   0.03464461  0.03019847  0.04378155       0.010
   0.05196691  0.03019847  0.04378155       0.010
   0.06928922  0.03019847  0.04378155       0.010
   0.08661152  0.03019847  0.04378155       0.010
   0.10393383  0.03019847  0.04378155       0.005
   0.00000000  0.04529770  0.04378155       0.005
   0.01732230  0.04529770  0.04378155       0.010
   0.03464461  0.04529770  0.04378155       0.010
   0.05196691  0.04529770  0.04378155       0.010
   0.06928922  0.04529770  0.04378155       0.010
   0.08661152  0.04529770  0.04378155       0.010
   0.10393383  0.04529770  0.04378155       0.005
   0.00000000  0.06039693  0.04378155       0.003
   0.01732230  0.06039693  0.04378155       0.005
   0.03464461  0.06039693  0.04378155       0.005
   0.05196691  0.06039693  0.04378155       0.005
   0.06928922  0.06039693  0.04378155       0.005
   0.08661152  0.06039693  0.04378155       0.005
   0.10393383  0.06039693  0.04378155       0.003
   0.00000000  0.00000000  0.05837541       0.001
   0.01732230  0.00000000  0.05837541       0.003
   0.03464461  0.00000000  0.05837541       0.003
   0.05196691  0.00000000  0.05837541       0.003
   0.06928922  0.00000000  0.05837541       0.003
   0.08661152  0.00000000  0.05837541       0.003
   0.10393383  0.00000000  0.05837541       0.001
   0.00000000  0.01509923  0.05837541       0.003
   0.01732230  0.01509923  0.05837541       0.005
   0.03464461  0.01509923  0.05837541       0.005
   0.05196691  0.01509923  0.05837541       0.005
   0.06928922  0.01509923  0.05837541       0.005
   0.08661152  0.01509923  0.05837541       0.005
   0.10393383  0.01509923  0.05837541       0.003
   0.00000000  0.03019847  0.05837541       0.003
   0.01732230  0.03019847  0.05837541       0.005
   0.03464461  0.03019847  0.05837541       0.005
   0.05196691  0.03019847  0.05837541       0.005
   0.06928922  0.03019847  0.05837541       0.005
   0.08661152  0.03019847  0.05837541       0.005
   0.10393383  0.03019847  0.05837541       0.003
   0.00000000  0.04529770  0.05837541       0.003
   0.01732230  0.04529770  0.05837541       0.005
   0.03464461  0.04529770  0.05837541       0.005
   0.05196691  0.04529770  0.05837541       0.005
   0.06928922  0.04529770  0.05837541       0.005
   0.08661152  0.04529770  0.05837541       0.005
   0.10393383  0.04529770  0.05837541       0.003
   0.00000000  0.06039693  0.05837541       0.001
   0.01732230  0.06039693  0.05837541       0.003
   0.03464461  0.06039693  0.05837541       0.003
   0.05196691  0.06039693  0.05837541       0.003
   0.06928922  0.06039693  0.05837541       0.003
   0.08661152  0.06039693  0.05837541       0.003
   0.10393383  0.06039693  0.05837541       0.001

 k-points in reciprocal lattice and weights: Automatic                               
   0.00000000  0.00000000  0.00000000       0.001
   0.08333333  0.00000000  0.00000000       0.003
   0.16666667  0.00000000  0.00000000       0.003
   0.25000000  0.00000000  0.00000000       0.003
   0.33333333  0.00000000  0.00000000       0.003
   0.41666667  0.00000000  0.00000000       0.003
   0.50000000  0.00000000  0.00000000       0.001
   0.00000000  0.12500000  0.00000000       0.003
   0.08333333  0.12500000  0.00000000       0.005
   0.16666667  0.12500000  0.00000000       0.005
   0.25000000  0.12500000  0.00000000       0.005
   0.33333333  0.12500000  0.00000000       0.005
   0.41666667  0.12500000  0.00000000       0.005
   0.50000000  0.12500000  0.00000000       0.003
   0.00000000  0.25000000  0.00000000       0.003
   0.08333333  0.25000000  0.00000000       0.005
   0.16666667  0.25000000  0.00000000       0.005
   0.25000000  0.25000000  0.00000000       0.005
   0.33333333  0.25000000  0.00000000       0.005
   0.41666667  0.25000000  0.00000000       0.005
   0.50000000  0.25000000  0.00000000       0.003
   0.00000000  0.37500000  0.00000000       0.003
   0.08333333  0.37500000  0.00000000       0.005
   0.16666667  0.37500000  0.00000000       0.005
   0.25000000  0.37500000  0.00000000       0.005
   0.33333333  0.37500000  0.00000000       0.005
   0.41666667  0.37500000  0.00000000       0.005
   0.50000000  0.37500000  0.00000000       0.003
   0.00000000  0.50000000  0.00000000       0.001
   0.08333333  0.50000000  0.00000000       0.003
   0.16666667  0.50000000  0.00000000       0.003
   0.25000000  0.50000000  0.00000000       0.003
   0.33333333  0.50000000  0.00000000       0.003
   0.41666667  0.50000000  0.00000000       0.003
   0.50000000  0.50000000  0.00000000       0.001
   0.00000000  0.00000000  0.12500000       0.003
   0.08333333  0.00000000  0.12500000       0.005
   0.16666667  0.00000000  0.12500000       0.005
   0.25000000  0.00000000  0.12500000       0.005
   0.33333333  0.00000000  0.12500000       0.005
   0.41666667  0.00000000  0.12500000       0.005
   0.50000000  0.00000000  0.12500000       0.003
   0.00000000  0.12500000  0.12500000       0.005
   0.08333333  0.12500000  0.12500000       0.010
   0.16666667  0.12500000  0.12500000       0.010
   0.25000000  0.12500000  0.12500000       0.010
   0.33333333  0.12500000  0.12500000       0.010
   0.41666667  0.12500000  0.12500000       0.010
   0.50000000  0.12500000  0.12500000       0.005
   0.00000000  0.25000000  0.12500000       0.005
   0.08333333  0.25000000  0.12500000       0.010
   0.16666667  0.25000000  0.12500000       0.010
   0.25000000  0.25000000  0.12500000       0.010
   0.33333333  0.25000000  0.12500000       0.010
   0.41666667  0.25000000  0.12500000       0.010
   0.50000000  0.25000000  0.12500000       0.005
   0.00000000  0.37500000  0.12500000       0.005
   0.08333333  0.37500000  0.12500000       0.010
   0.16666667  0.37500000  0.12500000       0.010
   0.25000000  0.37500000  0.12500000       0.010
   0.33333333  0.37500000  0.12500000       0.010
   0.41666667  0.37500000  0.12500000       0.010
   0.50000000  0.37500000  0.12500000       0.005
   0.00000000  0.50000000  0.12500000       0.003
   0.08333333  0.50000000  0.12500000       0.005
   0.16666667  0.50000000  0.12500000       0.005
   0.25000000  0.50000000  0.12500000       0.005
   0.33333333  0.50000000  0.12500000       0.005
   0.41666667  0.50000000  0.12500000       0.005
   0.50000000  0.50000000  0.12500000       0.003
   0.00000000  0.00000000  0.25000000       0.003
   0.08333333  0.00000000  0.25000000       0.005
   0.16666667  0.00000000  0.25000000       0.005
   0.25000000  0.00000000  0.25000000       0.005
   0.33333333  0.00000000  0.25000000       0.005
   0.41666667  0.00000000  0.25000000       0.005
   0.50000000  0.00000000  0.25000000       0.003
   0.00000000  0.12500000  0.25000000       0.005
   0.08333333  0.12500000  0.25000000       0.010
   0.16666667  0.12500000  0.25000000       0.010
   0.25000000  0.12500000  0.25000000       0.010
   0.33333333  0.12500000  0.25000000       0.010
   0.41666667  0.12500000  0.25000000       0.010
   0.50000000  0.12500000  0.25000000       0.005
   0.00000000  0.25000000  0.25000000       0.005
   0.08333333  0.25000000  0.25000000       0.010
   0.16666667  0.25000000  0.25000000       0.010
   0.25000000  0.25000000  0.25000000       0.010
   0.33333333  0.25000000  0.25000000       0.010
   0.41666667  0.25000000  0.25000000       0.010
   0.50000000  0.25000000  0.25000000       0.005
   0.00000000  0.37500000  0.25000000       0.005
   0.08333333  0.37500000  0.25000000       0.010
   0.16666667  0.37500000  0.25000000       0.010
   0.25000000  0.37500000  0.25000000       0.010
   0.33333333  0.37500000  0.25000000       0.010
   0.41666667  0.37500000  0.25000000       0.010
   0.50000000  0.37500000  0.25000000       0.005
   0.00000000  0.50000000  0.25000000       0.003
   0.08333333  0.50000000  0.25000000       0.005
   0.16666667  0.50000000  0.25000000       0.005
   0.25000000  0.50000000  0.25000000       0.005
   0.33333333  0.50000000  0.25000000       0.005
   0.41666667  0.50000000  0.25000000       0.005
   0.50000000  0.50000000  0.25000000       0.003
   0.00000000  0.00000000  0.37500000       0.003
   0.08333333  0.00000000  0.37500000       0.005
   0.16666667  0.00000000  0.37500000       0.005
   0.25000000  0.00000000  0.37500000       0.005
   0.33333333  0.00000000  0.37500000       0.005
   0.41666667  0.00000000  0.37500000       0.005
   0.50000000  0.00000000  0.37500000       0.003
   0.00000000  0.12500000  0.37500000       0.005
   0.08333333  0.12500000  0.37500000       0.010
   0.16666667  0.12500000  0.37500000       0.010
   0.25000000  0.12500000  0.37500000       0.010
   0.33333333  0.12500000  0.37500000       0.010
   0.41666667  0.12500000  0.37500000       0.010
   0.50000000  0.12500000  0.37500000       0.005
   0.00000000  0.25000000  0.37500000       0.005
   0.08333333  0.25000000  0.37500000       0.010
   0.16666667  0.25000000  0.37500000       0.010
   0.25000000  0.25000000  0.37500000       0.010
   0.33333333  0.25000000  0.37500000       0.010
   0.41666667  0.25000000  0.37500000       0.010
   0.50000000  0.25000000  0.37500000       0.005
   0.00000000  0.37500000  0.37500000       0.005
   0.08333333  0.37500000  0.37500000       0.010
   0.16666667  0.37500000  0.37500000       0.010
   0.25000000  0.37500000  0.37500000       0.010
   0.33333333  0.37500000  0.37500000       0.010
   0.41666667  0.37500000  0.37500000       0.010
   0.50000000  0.37500000  0.37500000       0.005
   0.00000000  0.50000000  0.37500000       0.003
   0.08333333  0.50000000  0.37500000       0.005
   0.16666667  0.50000000  0.37500000       0.005
   0.25000000  0.50000000  0.37500000       0.005
   0.33333333  0.50000000  0.37500000       0.005
   0.41666667  0.50000000  0.37500000       0.005
   0.50000000  0.50000000  0.37500000       0.003
   0.00000000  0.00000000  0.50000000       0.001
   0.08333333  0.00000000  0.50000000       0.003
   0.16666667  0.00000000  0.50000000       0.003
   0.25000000  0.00000000  0.50000000       0.003
   0.33333333  0.00000000  0.50000000       0.003
   0.41666667  0.00000000  0.50000000       0.003
   0.50000000  0.00000000  0.50000000       0.001
   0.00000000  0.12500000  0.50000000       0.003
   0.08333333  0.12500000  0.50000000       0.005
   0.16666667  0.12500000  0.50000000       0.005
   0.25000000  0.12500000  0.50000000       0.005
   0.33333333  0.12500000  0.50000000       0.005
   0.41666667  0.12500000  0.50000000       0.005
   0.50000000  0.12500000  0.50000000       0.003
   0.00000000  0.25000000  0.50000000       0.003
   0.08333333  0.25000000  0.50000000       0.005
   0.16666667  0.25000000  0.50000000       0.005
   0.25000000  0.25000000  0.50000000       0.005
   0.33333333  0.25000000  0.50000000       0.005
   0.41666667  0.25000000  0.50000000       0.005
   0.50000000  0.25000000  0.50000000       0.003
   0.00000000  0.37500000  0.50000000       0.003
   0.08333333  0.37500000  0.50000000       0.005
   0.16666667  0.37500000  0.50000000       0.005
   0.25000000  0.37500000  0.50000000       0.005
   0.33333333  0.37500000  0.50000000       0.005
   0.41666667  0.37500000  0.50000000       0.005
   0.50000000  0.37500000  0.50000000       0.003
   0.00000000  0.50000000  0.50000000       0.001
   0.08333333  0.50000000  0.50000000       0.003
   0.16666667  0.50000000  0.50000000       0.003
   0.25000000  0.50000000  0.50000000       0.003
   0.33333333  0.50000000  0.50000000       0.003
   0.41666667  0.50000000  0.50000000       0.003
   0.50000000  0.50000000  0.50000000       0.001

 position of ions in fractional coordinates (direct lattice) 
   0.00000000  0.00000000  0.00000000
   0.75000000  0.75000000  0.25000000
   0.00000000  0.50000000  0.50000000
   0.75000000  0.25000000  0.75000000
   0.50000000  0.00000000  0.50000000
   0.25000000  0.75000000  0.75000000
   0.50000000  0.50000000  0.00000000
   0.25000000  0.25000000  0.25000000
   0.00000000  0.33673444  0.00000000
   0.00000000  0.66326559  0.00000000
   0.75000000  0.08673443  0.25000000
   0.75000000  0.41326556  0.25000000
   0.00000000  0.83673441  0.50000000
   0.00000000  0.16326557  0.50000000
   0.75000000  0.58673441  0.75000000
   0.75000000  0.91326559  0.75000000
   0.50000000  0.33673444  0.50000000
   0.50000000  0.66326559  0.50000000
   0.25000000  0.08673443  0.75000000
   0.25000000  0.41326556  0.75000000
   0.50000000  0.83673441  0.00000000
   0.50000000  0.16326557  0.00000000
   0.25000000  0.58673441  0.25000000
   0.25000000  0.91326559  0.25000000

 position of ions in cartesian coordinates  (Angst):
   0.00000000  0.00000000  0.00000000
   3.60806488  6.20892455  2.14131275
   0.00000000  4.13928304  4.28262550
   3.60806488  2.06964152  6.42393825
   2.40537659  0.00000000  4.28262550
   1.20268829  6.20892455  6.42393825
   2.40537659  4.13928304  0.00000000
   1.20268829  2.06964152  2.14131275
   0.00000000  2.78767833  0.00000000
   0.00000000  5.49088799  0.00000000
   3.60806488  0.71803669  2.14131275
   3.60806488  3.42124622  2.14131275
   0.00000000  6.92696112  4.28262550
   0.00000000  1.35160483  4.28262550
   3.60806488  4.85731960  6.42393825
   3.60806488  7.56052950  6.42393825
   2.40537659  2.78767833  4.28262550
   2.40537659  5.49088799  4.28262550
   1.20268829  0.71803669  6.42393825
   1.20268829  3.42124622  6.42393825
   2.40537659  6.92696112  0.00000000
   2.40537659  1.35160483  0.00000000
   1.20268829  4.85731960  2.14131275
   1.20268829  7.56052950  2.14131275



--------------------------------------------------------------------------------------------------------


 k-point  1 :   0.0000 0.0000 0.0000  plane waves:    7405
 k-point  2 :   0.0833 0.0000 0.0000  plane waves:    7391
 k-point  3 :   0.1667 0.0000 0.0000  plane waves:    7393
 k-point  4 :   0.2500 0.0000 0.0000  plane waves:    7381
 k-point  5 :   0.3333 0.0000 0.0000  plane waves:    7400
 k-point  6 :   0.4167 0.0000 0.0000  plane waves:    7410
 k-point  7 :   0.5000 0.0000 0.0000  plane waves:    7408
 k-point  8 :   0.0000 0.1250 0.0000  plane waves:    7401
 k-point  9 :   0.0833 0.1250 0.0000  plane waves:    7410
 k-point 10 :   0.1667 0.1250 0.0000  plane waves:    7392
 k-point 11 :   0.2500 0.1250 0.0000  plane waves:    7392
 k-point 12 :   0.3333 0.1250 0.0000  plane waves:    7377
 k-point 13 :   0.4167 0.1250 0.0000  plane waves:    7395
 k-point 14 :   0.5000 0.1250 0.0000  plane waves:    7396
 k-point 15 :   0.0000 0.2500 0.0000  plane waves:    7377
 k-point 16 :   0.0833 0.2500 0.0000  plane waves:    7408
 k-point 17 :   0.1667 0.2500 0.0000  plane waves:    7390
 k-point 18 :   0.2500 0.2500 0.0000  plane waves:    7393
 k-point 19 :   0.3333 0.2500 0.0000  plane waves:    7388
 k-point 20 :   0.4167 0.2500 0.0000  plane waves:    7402
 k-point 21 :   0.5000 0.2500 0.0000  plane waves:    7406
 k-point 22 :   0.0000 0.3750 0.0000  plane waves:    7390
 k-point 23 :   0.0833 0.3750 0.0000  plane waves:    7386
 k-point 24 :   0.1667 0.3750 0.0000  plane waves:    7395
 k-point 25 :   0.2500 0.3750 0.0000  plane waves:    7386
 k-point 26 :   0.3333 0.3750 0.0000  plane waves:    7382
 k-point 27 :   0.4167 0.3750 0.0000  plane waves:    7381
 k-point 28 :   0.5000 0.3750 0.0000  plane waves:    7388
 k-point 29 :   0.0000 0.5000 0.0000  plane waves:    7380
 k-point 30 :   0.0833 0.5000 0.0000  plane waves:    7374
 k-point 31 :   0.1667 0.5000 0.0000  plane waves:    7386
 k-point 32 :   0.2500 0.5000 0.0000  plane waves:    7380
 k-point 33 :   0.3333 0.5000 0.0000  plane waves:    7376
 k-point 34 :   0.4167 0.5000 0.0000  plane waves:    7400
 k-point 35 :   0.5000 0.5000 0.0000  plane waves:    7412
 k-point 36 :   0.0000 0.0000 0.1250  plane waves:    7387
 k-point 37 :   0.0833 0.0000 0.1250  plane waves:    7410
 k-point 38 :   0.1667 0.0000 0.1250  plane waves:    7401
 k-point 39 :   0.2500 0.0000 0.1250  plane waves:    7389
 k-point 40 :   0.3333 0.0000 0.1250  plane waves:    7392
 k-point 41 :   0.4167 0.0000 0.1250  plane waves:    7398
 k-point 42 :   0.5000 0.0000 0.1250  plane waves:    7394
 k-point 43 :   0.0000 0.1250 0.1250  plane waves:    7395
 k-point 44 :   0.0833 0.1250 0.1250  plane waves:    7412
 k-point 45 :   0.1667 0.1250 0.1250  plane waves:    7403
 k-point 46 :   0.2500 0.1250 0.1250  plane waves:    7402
 k-point 47 :   0.3333 0.1250 0.1250  plane waves:    7388
 k-point 48 :   0.4167 0.1250 0.1250  plane waves:    7397
 k-point 49 :   0.5000 0.1250 0.1250  plane waves:    7388
 k-point 50 :   0.0000 0.2500 0.1250  plane waves:    7390
 k-point 51 :   0.0833 0.2500 0.1250  plane waves:    7404
 k-point 52 :   0.1667 0.2500 0.1250  plane waves:    7384
 k-point 53 :   0.2500 0.2500 0.1250  plane waves:    7395
 k-point 54 :   0.3333 0.2500 0.1250  plane waves:    7380
 k-point 55 :   0.4167 0.2500 0.1250  plane waves:    7390
 k-point 56 :   0.5000 0.2500 0.1250  plane waves:    7392
 k-point 57 :   0.0000 0.3750 0.1250  plane waves:    7393
 k-point 58 :   0.0833 0.3750 0.1250  plane waves:    7380
 k-point 59 :   0.1667 0.3750 0.1250  plane waves:    7389
 k-point 60 :   0.2500 0.3750 0.1250  plane waves:    7391
 k-point 61 :   0.3333 0.3750 0.1250  plane waves:    7383
 k-point 62 :   0.4167 0.3750 0.1250  plane waves:    7392
 k-point 63 :   0.5000 0.3750 0.1250  plane waves:    7408
 k-point 64 :   0.0000 0.5000 0.1250  plane waves:    7390
 k-point 65 :   0.0833 0.5000 0.1250  plane waves:    7386
 k-point 66 :   0.1667 0.5000 0.1250  plane waves:    7392
 k-point 67 :   0.2500 0.5000 0.1250  plane waves:    7380
 k-point 68 :   0.3333 0.5000 0.1250  plane waves:    7378
 k-point 69 :   0.4167 0.5000 0.1250  plane waves:    7388
 k-point 70 :   0.5000 0.5000 0.1250  plane waves:    7400
 k-point 71 :   0.0000 0.0000 0.2500  plane waves:    7430
 k-point 72 :   0.0833 0.0000 0.2500  plane waves:    7406
 k-point 73 :   0.1667 0.0000 0.2500  plane waves:    7415
 k-point 74 :   0.2500 0.0000 0.2500  plane waves:    7402
 k-point 75 :   0.3333 0.0000 0.2500  plane waves:    7388
 k-point 76 :   0.4167 0.0000 0.2500  plane waves:    7374
 k-point 77 :   0.5000 0.0000 0.2500  plane waves:    7380
 k-point 78 :   0.0000 0.1250 0.2500  plane waves:    7408
 k-point 79 :   0.0833 0.1250 0.2500  plane waves:    7409
 k-point 80 :   0.1667 0.1250 0.2500  plane waves:    7410
 k-point 81 :   0.2500 0.1250 0.2500  plane waves:    7393
 k-point 82 :   0.3333 0.1250 0.2500  plane waves:    7382
 k-point 83 :   0.4167 0.1250 0.2500  plane waves:    7387
 k-point 84 :   0.5000 0.1250 0.2500  plane waves:    7394
 k-point 85 :   0.0000 0.2500 0.2500  plane waves:    7402
 k-point 86 :   0.0833 0.2500 0.2500  plane waves:    7400
 k-point 87 :   0.1667 0.2500 0.2500  plane waves:    7389
 k-point 88 :   0.2500 0.2500 0.2500  plane waves:    7385
 k-point 89 :   0.3333 0.2500 0.2500  plane waves:    7384
 k-point 90 :   0.4167 0.2500 0.2500  plane waves:    7396
 k-point 91 :   0.5000 0.2500 0.2500  plane waves:    7380
 k-point 92 :   0.0000 0.3750 0.2500  plane waves:    7403
 k-point 93 :   0.0833 0.3750 0.2500  plane waves:    7388
 k-point 94 :   0.1667 0.3750 0.2500  plane waves:    7385
 k-point 95 :   0.2500 0.3750 0.2500  plane waves:    7383
 k-point 96 :   0.3333 0.3750 0.2500  plane waves:    7391
 k-point 97 :   0.4167 0.3750 0.2500  plane waves:    7395
 k-point 98 :   0.5000 0.3750 0.2500  plane waves:    7394
 k-point 99 :   0.0000 0.5000 0.2500  plane waves:    7386
 k-point ** :   0.0833 0.5000 0.2500  plane waves:    7402
 k-point ** :   0.1667 0.5000 0.2500  plane waves:    7390
 k-point ** :   0.2500 0.5000 0.2500  plane waves:    7390
 k-point ** :   0.3333 0.5000 0.2500  plane waves:    7398
 k-point ** :   0.4167 0.5000 0.2500  plane waves:    7402
 k-point ** :   0.5000 0.5000 0.2500  plane waves:    7400
 k-point ** :   0.0000 0.0000 0.3750  plane waves:    7406
 k-point ** :   0.0833 0.0000 0.3750  plane waves:    7416
 k-point ** :   0.1667 0.0000 0.3750  plane waves:    7407
 k-point ** :   0.2500 0.0000 0.3750  plane waves:    7407
 k-point ** :   0.3333 0.0000 0.3750  plane waves:    7376
 k-point ** :   0.4167 0.0000 0.3750  plane waves:    7383
 k-point ** :   0.5000 0.0000 0.3750  plane waves:    7372
 k-point ** :   0.0000 0.1250 0.3750  plane waves:    7422
 k-point ** :   0.0833 0.1250 0.3750  plane waves:    7409
 k-point ** :   0.1667 0.1250 0.3750  plane waves:    7414
 k-point ** :   0.2500 0.1250 0.3750  plane waves:    7396
 k-point ** :   0.3333 0.1250 0.3750  plane waves:    7384
 k-point ** :   0.4167 0.1250 0.3750  plane waves:    7364
 k-point ** :   0.5000 0.1250 0.3750  plane waves:    7382
 k-point ** :   0.0000 0.2500 0.3750  plane waves:    7411
 k-point ** :   0.0833 0.2500 0.3750  plane waves:    7410
 k-point ** :   0.1667 0.2500 0.3750  plane waves:    7403
 k-point ** :   0.2500 0.2500 0.3750  plane waves:    7397
 k-point ** :   0.3333 0.2500 0.3750  plane waves:    7388
 k-point ** :   0.4167 0.2500 0.3750  plane waves:    7383
 k-point ** :   0.5000 0.2500 0.3750  plane waves:    7390
 k-point ** :   0.0000 0.3750 0.3750  plane waves:    7401
 k-point ** :   0.0833 0.3750 0.3750  plane waves:    7405
 k-point ** :   0.1667 0.3750 0.3750  plane waves:    7402
 k-point ** :   0.2500 0.3750 0.3750  plane waves:    7388
 k-point ** :   0.3333 0.3750 0.3750  plane waves:    7386
 k-point ** :   0.4167 0.3750 0.3750  plane waves:    7394
 k-point ** :   0.5000 0.3750 0.3750  plane waves:    7394
 k-point ** :   0.0000 0.5000 0.3750  plane waves:    7408
 k-point ** :   0.0833 0.5000 0.3750  plane waves:    7402
 k-point ** :   0.1667 0.5000 0.3750  plane waves:    7390
 k-point ** :   0.2500 0.5000 0.3750  plane waves:    7398
 k-point ** :   0.3333 0.5000 0.3750  plane waves:    7386
 k-point ** :   0.4167 0.5000 0.3750  plane waves:    7404
 k-point ** :   0.5000 0.5000 0.3750  plane waves:    7396
 k-point ** :   0.0000 0.0000 0.5000  plane waves:    7370
 k-point ** :   0.0833 0.0000 0.5000  plane waves:    7404
 k-point ** :   0.1667 0.0000 0.5000  plane waves:    7404
 k-point ** :   0.2500 0.0000 0.5000  plane waves:    7412
 k-point ** :   0.3333 0.0000 0.5000  plane waves:    7400
 k-point ** :   0.4167 0.0000 0.5000  plane waves:    7370
 k-point ** :   0.5000 0.0000 0.5000  plane waves:    7364
 k-point ** :   0.0000 0.1250 0.5000  plane waves:    7392
 k-point ** :   0.0833 0.1250 0.5000  plane waves:    7406
 k-point ** :   0.1667 0.1250 0.5000  plane waves:    7416
 k-point ** :   0.2500 0.1250 0.5000  plane waves:    7400
 k-point ** :   0.3333 0.1250 0.5000  plane waves:    7384
 k-point ** :   0.4167 0.1250 0.5000  plane waves:    7364
 k-point ** :   0.5000 0.1250 0.5000  plane waves:    7368
 k-point ** :   0.0000 0.2500 0.5000  plane waves:    7428
 k-point ** :   0.0833 0.2500 0.5000  plane waves:    7408
 k-point ** :   0.1667 0.2500 0.5000  plane waves:    7402
 k-point ** :   0.2500 0.2500 0.5000  plane waves:    7398
 k-point ** :   0.3333 0.2500 0.5000  plane waves:    7384
 k-point ** :   0.4167 0.2500 0.5000  plane waves:    7382
 k-point ** :   0.5000 0.2500 0.5000  plane waves:    7372
 k-point ** :   0.0000 0.3750 0.5000  plane waves:    7436
 k-point ** :   0.0833 0.3750 0.5000  plane waves:    7406
 k-point ** :   0.1667 0.3750 0.5000  plane waves:    7400
 k-point ** :   0.2500 0.3750 0.5000  plane waves:    7384
 k-point ** :   0.3333 0.3750 0.5000  plane waves:    7390
 k-point ** :   0.4167 0.3750 0.5000  plane waves:    7404
 k-point ** :   0.5000 0.3750 0.5000  plane waves:    7380
 k-point ** :   0.0000 0.5000 0.5000  plane waves:    7420
 k-point ** :   0.0833 0.5000 0.5000  plane waves:    7404
 k-point ** :   0.1667 0.5000 0.5000  plane waves:    7408
 k-point ** :   0.2500 0.5000 0.5000  plane waves:    7396
 k-point ** :   0.3333 0.5000 0.5000  plane waves:    7396
 k-point ** :   0.4167 0.5000 0.5000  plane waves:    7412
 k-point ** :   0.5000 0.5000 0.5000  plane waves:    7400

 maximum and minimum number of plane-waves per node :       645      587

 maximum number of plane-waves:      7436
 maximum index in each direction: 
   IXMAX=    8   IYMAX=   14   IZMAX=   14
   IXMIN=   -8   IYMIN=  -14   IZMIN=  -15

 WARNING: aliasing errors must be expected set NGX to  34 to avoid them
 WARNING: aliasing errors must be expected set NGY to  58 to avoid them
 WARNING: aliasing errors must be expected set NGZ to  60 to avoid them
 aliasing errors are usually negligible using standard VASP settings
 and one can safely disregard these warnings

 parallel 3D FFT for wavefunctions:
    minimum data exchange during FFTs selected (reduces bandwidth)
 parallel 3D FFT for charge:
    minimum data exchange during FFTs selected (reduces bandwidth)


 total amount of memory used by VASP on root node   114382. kBytes
========================================================================

   base      :      30000. kBytes
   nonl-proj :      26023. kBytes
   fftplans  :       1110. kBytes
   grid      :       1850. kBytes
   one-center:         21. kBytes
   wavefun   :      55378. kBytes

     INWAV:  cpu time    0.00: real time    0.00
 Broyden mixing: mesh for mixing (old mesh)
   NGX = 17   NGY = 29   NGZ = 29
  (NGX  = 56   NGY  = 96   NGZ  = 96)
  gives a total of  14297 points

 initial charge density was supplied:
 charge density of overlapping atoms calculated
 number of electron      96.0000000 magnetization 
 keeping initial charge density in first step


--------------------------------------------------------------------------------------------------------


 Maximum index for augmentation-charges         1108 (set IRDMAX)


--------------------------------------------------------------------------------------------------------


 First call to EWALD:  gamma=   0.254
 Maximum number of real-space cells 4x 2x 2
 Maximum number of reciprocal cells 2x 3x 3

 FEWALD executed in parallel
    FEWALD:  cpu time    0.00: real time    0.00


----------------------------------------- Iteration    1(   1)  ---------------------------------------


    POTLOK:  cpu time    0.04: real time    0.03
    SETDIJ:  cpu time    0.00: real time    0.01
     EDDAV:  cpu time    4.04: real time    4.04
       DOS:  cpu time    0.00: real time    0.00
    --------------------------------------------
      LOOP:  cpu time    4.08: real time    4.09

 eigenvalue-minimisations  : 21828
 total energy-change (2. order) : 0.5620025E+03  (-0.3050305E+04)
 number of electron      96.0000000 magnetization 
 augmentation part       96.0000000 magnetization 

 Free energy of the ion-electron system (eV)
  ---------------------------------------------------
  alpha Z        PSCENC =       233.54545022
  Ewald energy   TEWEN  =     -3288.42465339
  -Hartree energ DENC   =       -59.82560172
  -exchange      EXHF   =         0.00000000
  -V(xc)+E(xc)   XCENC  =      -441.05786294
  PAW double counting   =      1325.94774286     -715.41574146
  entropy T*S    EENTRO =        -0.01796171
  eigenvalues    EBANDS =      1092.95050884
  atomic energy  EATOM  =      2414.30061249
  ---------------------------------------------------
  free energy    TOTEN  =       562.00249319 eV

  energy without entropy =      562.02045490  energy(sigma->0) =      562.01147404


--------------------------------------------------------------------------------------------------------




----------------------------------------- Iteration    1(   2)  ---------------------------------------


     EDDAV:  cpu time    4.00: real time    4.00
       DOS:  cpu time    0.00: real time    0.00
    --------------------------------------------
      LOOP:  cpu time    4.00: real time    4.01

 eigenvalue-minimisations  : 21700
 total energy-change (2. order) :-0.6260591E+03  (-0.6040387E+03)
 number of electron      96.0000000 magnetization 
 augmentation part       96.0000000 magnetization 

 Free energy of the ion-electron system (eV)
  ---------------------------------------------------
  alpha Z        PSCENC =       233.54545022
  Ewald energy   TEWEN  =     -3288.42465339
  -Hartree energ DENC   =       -59.82560172
  -exchange      EXHF   =         0.00000000
  -V(xc)+E(xc)   XCENC  =      -441.05786294
  PAW double counting   =      1325.94774286     -715.41574146
  entropy T*S    EENTRO =        -0.01667567
  eigenvalues    EBANDS =       466.89013768
  atomic energy  EATOM  =      2414.30061249
  ---------------------------------------------------
  free energy    TOTEN  =       -64.05659193 eV

  energy without entropy =      -64.03991626  energy(sigma->0) =      -64.04825410


--------------------------------------------------------------------------------------------------------




----------------------------------------- Iteration    1(   3)  ---------------------------------------


     EDDAV:  cpu time    5.26: real time    5.27
       DOS:  cpu time    0.00: real time    0.00
    --------------------------------------------
      LOOP:  cpu time    5.27: real time    5.28

 eigenvalue-minimisations  : 30448
 total energy-change (2. order) :-0.1061662E+03  (-0.9974211E+02)
 number of electron      96.0000000 magnetization 
 augmentation part       96.0000000 magnetization 

 Free energy of the ion-electron system (eV)
  ---------------------------------------------------
  alpha Z        PSCENC =       233.54545022
  Ewald energy   TEWEN  =     -3288.42465339
  -Hartree energ DENC   =       -59.82560172
  -exchange      EXHF   =         0.00000000
  -V(xc)+E(xc)   XCENC  =      -441.05786294
  PAW double counting   =      1325.94774286     -715.41574146
  entropy T*S    EENTRO =        -0.01460973
  eigenvalues    EBANDS =       360.72186033
  atomic energy  EATOM  =      2414.30061249
  ---------------------------------------------------
  free energy    TOTEN  =      -170.22280334 eV

  energy without entropy =     -170.20819361  energy(sigma->0) =     -170.21549847


--------------------------------------------------------------------------------------------------------




----------------------------------------- Iteration    1(   4)  ---------------------------------------


     EDDAV:  cpu time    4.87: real time    4.88
       DOS:  cpu time    0.00: real time    0.00
    --------------------------------------------
      LOOP:  cpu time    4.88: real time    4.89

 eigenvalue-minimisations  : 27728
 total energy-change (2. order) :-0.4937057E+01  (-0.4870988E+01)
 number of electron      96.0000000 magnetization 
 augmentation part       96.0000000 magnetization 

 Free energy of the ion-electron system (eV)
  ---------------------------------------------------
  alpha Z        PSCENC =       233.54545022
  Ewald energy   TEWEN  =     -3288.42465339
  -Hartree energ DENC   =       -59.82560172
  -exchange      EXHF   =         0.00000000
  -V(xc)+E(xc)   XCENC  =      -441.05786294
  PAW double counting   =      1325.94774286     -715.41574146
  entropy T*S    EENTRO =        -0.01553133
  eigenvalues    EBANDS =       355.78572471
  atomic energy  EATOM  =      2414.30061249
  ---------------------------------------------------
  free energy    TOTEN  =      -175.15986056 eV

  energy without entropy =     -175.14432924  energy(sigma->0) =     -175.15209490


--------------------------------------------------------------------------------------------------------




----------------------------------------- Iteration    1(   5)  ---------------------------------------


     EDDAV:  cpu time    4.86: real time    4.86
       DOS:  cpu time    0.00: real time    0.00
    CHARGE:  cpu time    0.26: real time    0.26
    MIXING:  cpu time    0.00: real time    0.00
    --------------------------------------------
      LOOP:  cpu time    5.12: real time    5.14

 eigenvalue-minimisations  : 27756
 total energy-change (2. order) :-0.9637372E-01  (-0.9602972E-01)
 number of electron      95.9999990 magnetization 
 augmentation part        1.1295365 magnetization 

 Broyden mixing:
  rms(total) = 0.19512E+01    rms(broyden)= 0.19512E+01
  rms(prec ) = 0.31948E+01
  weight for this iteration     100.00

 Free energy of the ion-electron system (eV)
  ---------------------------------------------------
  alpha Z        PSCENC =       233.54545022
  Ewald energy   TEWEN  =     -3288.42465339
  -Hartree energ DENC   =       -59.82560172
  -exchange      EXHF   =         0.00000000
  -V(xc)+E(xc)   XCENC  =      -441.05786294
  PAW double counting   =      1325.94774286     -715.41574146
  entropy T*S    EENTRO =        -0.01562296
  eigenvalues    EBANDS =       355.68944262
  atomic energy  EATOM  =      2414.30061249
  ---------------------------------------------------
  free energy    TOTEN  =      -175.25623428 eV

  energy without entropy =     -175.24061132  energy(sigma->0) =     -175.24842280


--------------------------------------------------------------------------------------------------------




----------------------------------------- Iteration    1(   6)  ---------------------------------------


    POTLOK:  cpu time    0.02: real time    0.02
    SETDIJ:  cpu time    0.00: real time    0.00
    EDDIAG:  cpu time    0.82: real time    0.82
  RMM-DIIS:  cpu time    2.71: real time    2.71
[...]
 k-point   173 :       0.3333    0.5000    0.5000
  band No.  band energies     occupation 
      1      -3.1051      2.00000
      2      -3.1051      2.00000
      3      -3.1051      2.00000
      4      -3.1051      2.00000
      5      -1.0739      2.00000
      6      -1.0739      2.00000
      7      -1.0739      2.00000
      8      -1.0739      2.00000
      9      -0.0089      2.00000
     10      -0.0089      2.00000
     11      -0.0089      2.00000
     12      -0.0089      2.00000
     13       2.0121      2.00000
     14       2.0121      2.00000
     15       2.0121      2.00000
     16       2.0121      2.00000
     17       2.8137      2.00000
     18       2.8137      2.00000
     19       2.8137      2.00000
     20       2.8137      2.00000
     21       3.9520      2.00000
     22       3.9520      2.00000
     23       3.9520      2.00000
     24       3.9520      2.00000
     25       4.7755      2.00000
     26       4.7755      2.00000
     27       4.7755      2.00000
     28       4.7755      2.00000
     29       5.8149      2.00000
     30       5.8149      2.00000
     31       5.8149      2.00000
     32       5.8149      2.00000
     33       5.9954      2.00000
     34       5.9954      2.00000
     35       5.9954      2.00000
     36       5.9954      2.00000
     37       6.6196      2.00000
     38       6.6196      2.00000
     39       6.6196      2.00000
     40       6.6196      2.00000
     41       7.4733      1.99999
     42       7.4733      1.99999
     43       7.4733      1.99999
     44       7.4733      1.99999
     45       7.5286      1.99995
     46       7.5286      1.99995
     47       7.5286      1.99995
     48       7.5286      1.99995
     49       8.4344      0.00000
     50       8.4344      0.00000
     51       8.4344      0.00000
     52       8.4344      0.00000
     53       8.7200      0.00000
     54       8.7200      0.00000
     55       8.7200      0.00000
     56       8.7200      0.00000
     57       9.8634      0.00000
     58       9.8636      0.00000
     59       9.8680      0.00000
     60       9.8762      0.00000
     61      10.1500      0.00000
     62      10.1843      0.00000

 k-point   174 :       0.4167    0.5000    0.5000
  band No.  band energies     occupation 
      1      -2.8760      2.00000
      2      -2.8760      2.00000
      3      -2.8760      2.00000
      4      -2.8760      2.00000
      5      -1.4110      2.00000
      6      -1.4110      2.00000
      7      -1.4110      2.00000
      8      -1.4110      2.00000
      9       0.0861      2.00000
     10       0.0861      2.00000
     11       0.0861      2.00000
     12       0.0861      2.00000
     13       2.0589      2.00000
     14       2.0589      2.00000
     15       2.0589      2.00000
     16       2.0589      2.00000
     17       2.7588      2.00000
     18       2.7588      2.00000
     19       2.7588      2.00000
     20       2.7588      2.00000
     21       3.5311      2.00000
     22       3.5311      2.00000
     23       3.5311      2.00000
     24       3.5311      2.00000
     25       5.0242      2.00000
     26       5.0242      2.00000
     27       5.0242      2.00000
     28       5.0242      2.00000
     29       5.6278      2.00000
     30       5.6278      2.00000
     31       5.6278      2.00000
     32       5.6278      2.00000
     33       5.9029      2.00000
     34       5.9029      2.00000
     35       5.9029      2.00000
     36       5.9029      2.00000
     37       6.7299      2.00000
     38       6.7299      2.00000
     39       6.7299      2.00000
     40       6.7299      2.00000
     41       7.7087      1.93212
     42       7.7087      1.93212
     43       7.7087      1.93212
     44       7.7087      1.93211
     45       7.8215      0.47606
     46       7.8215      0.47606
     47       7.8215      0.47605
     48       7.8215      0.47605
     49       8.6643      0.00000
     50       8.6643      0.00000
     51       8.6643      0.00000
     52       8.6643      0.00000
     53       8.9537      0.00000
     54       8.9537      0.00000
     55       8.9537      0.00000
     56       8.9537      0.00000
     57       9.5799      0.00000
     58       9.5800      0.00000
     59       9.5803      0.00000
     60       9.5808      0.00000
     61      10.2670      0.00000
     62      10.3387      0.00000

 k-point   175 :       0.5000    0.5000    0.5000
  band No.  band energies     occupation 
      1      -2.7626      2.00000
      2      -2.7626      2.00000
      3      -2.7626      2.00000
      4      -2.7626      2.00000
      5      -1.5636      2.00000
      6      -1.5636      2.00000
      7      -1.5636      2.00000
      8      -1.5636      2.00000
      9       0.1252      2.00000
     10       0.1252      2.00000
     11       0.1252      2.00000
     12       0.1252      2.00000
     13       2.0426      2.00000
     14       2.0426      2.00000
     15       2.0426      2.00000
     16       2.0426      2.00000
     17       2.8720      2.00000
     18       2.8720      2.00000
     19       2.8720      2.00000
     20       2.8720      2.00000
     21       3.2822      2.00000
     22       3.2822      2.00000
     23       3.2822      2.00000
     24       3.2822      2.00000
     25       5.2690      2.00000
     26       5.2690      2.00000
     27       5.2690      2.00000
     28       5.2690      2.00000
     29       5.3650      2.00000
     30       5.3650      2.00000
     31       5.3650      2.00000
     32       5.3650      2.00000
     33       5.9048      2.00000
     34       5.9048      2.00000
     35       5.9049      2.00000
     36       5.9049      2.00000
     37       6.7653      2.00000
     38       6.7653      2.00000
     39       6.7653      2.00000
     40       6.7653      2.00000
     41       7.7802      1.23866
     42       7.7802      1.23866
     43       7.7802      1.23866
     44       7.7802      1.23865
     45       7.9360      0.00638
     46       7.9360      0.00638
     47       7.9360      0.00638
     48       7.9360      0.00638
     49       8.7574      0.00000
     50       8.7574      0.00000
     51       8.7574      0.00000
     52       8.7574      0.00000
     53       9.1350      0.00000
     54       9.1351      0.00000
     55       9.1351      0.00000
     56       9.1351      0.00000
     57       9.4545      0.00000
     58       9.4545      0.00000
     59       9.4545      0.00000
     60       9.4548      0.00000
     61       9.9977      0.00000
     62      10.0031      0.00000


--------------------------------------------------------------------------------------------------------


 soft charge-density along one line, spin component           1
         0         1         2         3         4         5         6         7         8         9
 total charge-density along one line

 pseudopotential strength for first ion, spin component:           1
 -1.175  -0.000  -0.000  -0.000   0.000   1.143  -0.000  -0.000
 -0.000  -1.175  -0.000  -0.000   0.000  -0.000   1.143  -0.000
 -0.000  -0.000  -1.171  -0.000  -0.016  -0.000  -0.000   1.145
 -0.000  -0.000  -0.000  -1.159  -0.000  -0.000  -0.000  -0.000
  0.000   0.000  -0.016  -0.000  -1.175   0.000   0.000  -0.004
  1.143  -0.000  -0.000  -0.000   0.000   0.743  -0.000  -0.000
 -0.000   1.143  -0.000  -0.000   0.000  -0.000   0.743  -0.000
 -0.000  -0.000   1.145  -0.000  -0.004  -0.000  -0.000   0.744
 -0.000  -0.000  -0.000   1.149  -0.000  -0.000   0.000  -0.000
  0.000   0.000  -0.004  -0.000   1.143   0.000   0.000  -0.001
 -0.000   0.000  -0.002   0.000  -0.005  -0.000   0.000  -0.001
 -0.000   0.000   0.000   0.000  -0.001  -0.000   0.000  -0.000
 -0.000   0.000   0.000  -0.004   0.000  -0.000   0.000   0.000
 -0.004  -0.000   0.000  -0.000   0.000  -0.000  -0.000   0.000
 -0.000  -0.004   0.000   0.000  -0.000  -0.000  -0.000   0.000
 total augmentation occupancy for first ion, spin component:           1
  0.698  -0.000   0.000  -0.000  -0.000  -0.431  -0.000  -0.000  -0.000   0.000  -0.000  -0.000  -0.000  -0.028  -0.000
  0.000   0.704  -0.000   0.000   0.000   0.000  -0.414   0.000  -0.000   0.000  -0.000   0.000   0.000   0.000  -0.021
 -0.000   0.000   0.675  -0.000  -0.017   0.000   0.000  -0.482   0.000   0.006   0.043   0.010  -0.000  -0.000   0.000
 -0.000  -0.000   0.000   0.824   0.000  -0.000  -0.000  -0.000  -0.526  -0.000  -0.000  -0.000  -0.027   0.000   0.000
  0.000  -0.000  -0.017   0.000   0.626  -0.000   0.000   0.006  -0.000  -0.396   0.030   0.007   0.000  -0.000  -0.000
 -0.431   0.000   0.000   0.000   0.000   0.333  -0.000   0.000   0.000   0.000  -0.000   0.000  -0.000   0.037  -0.000
 -0.000  -0.414   0.000   0.000  -0.000   0.000   0.285   0.000  -0.000   0.000  -0.000   0.000  -0.000   0.000   0.037
  0.000  -0.000  -0.482  -0.000   0.006  -0.000   0.000   0.412   0.000   0.000  -0.083  -0.012  -0.000  -0.000   0.000
  0.000  -0.000  -0.000  -0.526  -0.000   0.000   0.000  -0.000   0.403   0.000   0.000   0.000   0.041   0.000   0.000
 -0.000  -0.000   0.006  -0.000  -0.396   0.000   0.000   0.000   0.000   0.309  -0.046  -0.011  -0.000   0.000  -0.000
 -0.000   0.000   0.043  -0.000   0.030   0.000   0.000  -0.083  -0.000  -0.046   1.209   0.183   0.000  -0.000  -0.000
 -0.000   0.000   0.010  -0.000   0.007   0.000   0.000  -0.012  -0.000  -0.011   0.183   0.037   0.000  -0.000  -0.000
 -0.000  -0.000  -0.000  -0.027   0.000   0.000  -0.000   0.000   0.041   0.000   0.000   0.000   0.349   0.000   0.000
 -0.028   0.000   0.000   0.000  -0.000   0.037   0.000  -0.000   0.000  -0.000  -0.000   0.000   0.000   0.392   0.000
  0.000  -0.021   0.000  -0.000  -0.000  -0.000   0.037  -0.000  -0.000  -0.000   0.000  -0.000  -0.000   0.000   0.372


------------------------ aborting loop because EDIFF is reached ----------------------------------------


    CHARGE:  cpu time    0.26: real time    0.26
    FORLOC:  cpu time    0.00: real time    0.00
    FORNL :  cpu time    2.22: real time    2.22
    STRESS:  cpu time    2.43: real time    2.44
    FORCOR:  cpu time    0.02: real time    0.02
    FORHAR:  cpu time    0.01: real time    0.01
    MIXING:  cpu time    0.00: real time    0.00
    OFIELD:  cpu time    0.00: real time    0.00

  FORCE on cell =-STRESS in cart. coord.  units (eV):
  Direction    XX          YY          ZZ          XY          YZ          ZX
  --------------------------------------------------------------------------------------
  Alpha Z   233.54545   233.54545   233.54545
  Ewald   -1090.64480 -1178.95020 -1018.83921    -0.00000     0.00000    -0.00001
  Hartree    13.46826     3.24060    16.64094    -0.00000    -0.00000     0.00000
  E(xc)    -335.01788  -331.87616  -336.97997    -0.00000    -0.00000     0.00000
  Local     -40.44193    61.34790  -108.99892     0.00000    -0.00000     0.00000
  n-local   572.90694   559.99197   594.49568    -0.60278    -0.30824    -0.22409
  augment   -45.97474   -46.10292   -47.43339    -0.00000     0.00000     0.00000
  Kinetic   692.15829   698.80307   667.56814     3.50762     3.07894     4.34648
  Fock        0.00000     0.00000     0.00000     0.00000     0.00000     0.00000
  -------------------------------------------------------------------------------------
  Total      -0.00042    -0.00029    -0.00128     0.00000     0.00000     0.00000
  in kB      -0.00198    -0.00135    -0.00603     0.00000     0.00000     0.00000
  external pressure =       -0.00 kB  Pullay stress =        0.00 kB


 VOLUME and BASIS-vectors are now :
 -----------------------------------------------------------------------------
  energy-cutoff  :      450.00
  volume of cell :      341.12
      direct lattice vectors                 reciprocal lattice vectors
     4.810753175  0.000000000  0.000000000     0.207867659  0.000000000  0.000000000
     0.000000000  8.278566071  0.000000000     0.000000000  0.120793866  0.000000000
     0.000000000  0.000000000  8.565250999     0.000000000  0.000000000  0.116750811

  length of vectors
     4.810753175  8.278566071  8.565250999     0.207867659  0.120793866  0.116750811


 FORCES acting on ions
    electron-ion (+dipol)            ewald-force                    non-local-force                 convergence-correction
 -----------------------------------------------------------------------------------------------
   -.258E-14 0.595E-07 0.198E-13   -.533E-14 0.103E-05 0.142E-13   0.163E-18 -.173E-17 0.954E-17   0.226E-14 0.139E-06 0.336E-13
   0.181E-13 -.943E-07 0.108E-12   -.288E-14 -.159E-05 -.261E-14   0.542E-19 0.000E+00 -.434E-17   -.235E-14 -.458E-07 -.156E-13
   0.207E-13 0.164E-06 0.366E-13   0.389E-14 0.272E-05 -.533E-14   0.542E-19 -.173E-17 -.434E-17   0.179E-14 -.140E-06 -.262E-13
   0.295E-13 -.129E-06 -.389E-13   0.868E-14 -.216E-05 0.218E-13   -.163E-18 -.173E-17 -.867E-18   -.250E-14 0.473E-07 0.167E-13
   0.281E-13 0.595E-07 0.690E-13   -.711E-14 0.103E-05 0.711E-14   0.271E-18 0.173E-17 0.694E-17   0.653E-15 0.139E-06 -.293E-13
   -.369E-15 -.943E-07 0.957E-14   -.336E-14 -.159E-05 -.402E-15   0.163E-18 -.260E-17 0.867E-18   -.184E-14 -.458E-07 0.163E-13
   0.369E-14 0.164E-06 -.321E-13   0.389E-14 0.272E-05 0.000E+00   -.542E-19 0.173E-17 -.520E-17   0.730E-15 -.140E-06 0.305E-13
   0.137E-13 -.129E-06 -.188E-13   0.890E-14 -.216E-05 0.142E-13   0.271E-18 0.867E-18 -.113E-16   -.132E-14 0.473E-07 -.162E-13
   -.631E-13 0.520E+00 0.416E-06   0.333E-14 -.145E+01 -.444E-14   0.156E-16 0.927E+00 0.867E-18   -.101E-14 0.574E-05 0.285E-13
   0.517E-13 -.520E+00 -.416E-06   0.178E-14 0.145E+01 0.178E-14   0.139E-16 -.927E+00 0.867E-17   0.196E-14 -.588E-05 0.281E-13
   -.604E-13 0.520E+00 0.416E-06   -.173E-13 -.145E+01 0.213E-16   0.000E+00 0.927E+00 0.520E-17   0.229E-14 0.592E-05 -.166E-13
   0.103E-13 -.520E+00 -.416E-06   -.349E-14 0.145E+01 -.360E-14   0.000E+00 -.927E+00 0.781E-17   -.353E-14 -.587E-05 -.169E-13
   0.441E-13 0.520E+00 0.416E-06   0.107E-13 -.145E+01 -.142E-13   0.173E-17 0.927E+00 0.867E-18   -.148E-14 0.581E-05 -.319E-13
   -.534E-13 -.520E+00 -.416E-06   0.355E-14 0.145E+01 0.888E-14   -.347E-17 -.927E+00 0.173E-17   0.214E-14 -.566E-05 -.322E-13
   -.318E-13 0.520E+00 0.416E-06   -.132E-15 -.145E+01 0.131E-13   -.104E-16 0.927E+00 -.520E-17   0.202E-14 0.563E-05 0.160E-13
   -.572E-13 -.520E+00 -.416E-06   0.102E-13 0.145E+01 0.620E-14   0.000E+00 -.927E+00 -.260E-17   -.288E-14 -.568E-05 0.157E-13
   -.823E-13 0.520E+00 0.416E-06   0.155E-14 -.145E+01 -.133E-13   0.347E-17 0.927E+00 0.867E-17   -.278E-14 0.574E-05 -.310E-13
   0.491E-13 -.520E+00 -.416E-06   -.222E-14 0.145E+01 -.711E-14   0.173E-17 -.927E+00 -.173E-17   0.645E-15 -.588E-05 -.300E-13
   -.356E-13 0.520E+00 0.416E-06   -.156E-13 -.145E+01 -.208E-13   0.295E-16 0.927E+00 0.173E-17   0.281E-14 0.592E-05 0.160E-13
   0.133E-13 -.520E+00 -.416E-06   -.300E-15 0.145E+01 0.272E-14   -.208E-16 -.927E+00 -.694E-17   -.205E-14 -.587E-05 0.166E-13
   0.343E-13 0.520E+00 0.416E-06   0.000E+00 -.145E+01 -.711E-14   0.139E-16 0.927E+00 0.347E-17   -.265E-14 0.581E-05 0.294E-13
   -.646E-13 -.520E+00 -.416E-06   0.666E-14 0.145E+01 -.142E-13   -.520E-17 -.927E+00 0.520E-17   0.231E-15 -.566E-05 0.304E-13
   0.517E-14 0.520E+00 0.416E-06   -.955E-14 -.145E+01 -.178E-13   -.121E-16 0.927E+00 0.520E-17   0.333E-14 0.563E-05 -.168E-13
   -.170E-13 -.520E+00 -.416E-06   0.450E-14 0.145E+01 -.790E-17   -.139E-16 -.927E+00 0.173E-17   -.252E-14 -.568E-05 -.163E-13
 -----------------------------------------------------------------------------------------------
   -.147E-12 -.398E-12 -.366E-12   0.254E-15 -.273E-13 -.208E-13   0.146E-16 -.111E-15 0.260E-16   -.604E-14 0.719E-14 -.125E-14


 POSITION                                       TOTAL-FORCE (eV/Angst)
 -----------------------------------------------------------------------------------
      0.00000      0.00000      0.00000         0.000000      0.000000      0.000000
      3.60806      6.20892      2.14131        -0.000000      0.000000      0.000000
      0.00000      4.13928      4.28263         0.000000      0.000000      0.000000
      3.60806      2.06964      6.42394         0.000000      0.000000      0.000000
      2.40538      0.00000      4.28263         0.000000      0.000000      0.000000
      1.20269      6.20892      6.42394         0.000000      0.000000      0.000000
      2.40538      4.13928      0.00000        -0.000000      0.000000      0.000000
      1.20269      2.06964      2.14131         0.000000      0.000000      0.000000
      0.00000      2.78768      0.00000        -0.000000      0.000013     -0.000000
      0.00000      5.49089      0.00000         0.000000     -0.000013      0.000000
      3.60806      0.71804      2.14131        -0.000000      0.000013      0.000000
      3.60806      3.42125      2.14131        -0.000000     -0.000013     -0.000000
      0.00000      6.92696      4.28263         0.000000      0.000013     -0.000000
      0.00000      1.35160      4.28263         0.000000     -0.000013     -0.000000
      3.60806      4.85732      6.42394        -0.000000      0.000013     -0.000000
      3.60806      7.56053      6.42394         0.000000     -0.000013     -0.000000
      2.40538      2.78768      4.28263         0.000000      0.000013     -0.000000
      2.40538      5.49089      4.28263        -0.000000     -0.000013     -0.000000
      1.20269      0.71804      6.42394        -0.000000      0.000013      0.000000
      1.20269      3.42125      6.42394        -0.000000     -0.000013     -0.000000
      2.40538      6.92696      0.00000         0.000000      0.000013      0.000000
      2.40538      1.35160      0.00000         0.000000     -0.000013     -0.000000
      1.20269      4.85732      2.14131        -0.000000      0.000013      0.000000
      1.20269      7.56053      2.14131         0.000000     -0.000013     -0.000000
 -----------------------------------------------------------------------------------
    total drift:                               -0.000000     -0.000000     -0.000000


--------------------------------------------------------------------------------------------------------



  FREE ENERGIE OF THE ION-ELECTRON SYSTEM (eV)
  ---------------------------------------------------
  free  energy   TOTEN  =      -161.19332004 eV

  energy  without entropy=     -161.17492770  energy(sigma->0) =     -161.18412387



--------------------------------------------------------------------------------------------------------


    POTLOK:  cpu time    0.03: real time    0.03


--------------------------------------------------------------------------------------------------------




--------------------------------------------------------------------------------------------------------


  
 reached required accuracy - stopping structural energy minimisation
     LOOP+:  cpu time   74.00: real time   74.35
    4ORBIT:  cpu time    0.00: real time    0.00

 total amount of memory used by VASP on root node   114382. kBytes
========================================================================

   base      :      30000. kBytes
   nonl-proj :      26023. kBytes
   fftplans  :       1110. kBytes
   grid      :       1850. kBytes
   one-center:         21. kBytes
   wavefun   :      55378. kBytes

  
  
 General timing and accounting informations for this job:
 ========================================================
  
                  Total CPU time used (sec):       79.109
                            User time (sec):       78.893
                          System time (sec):        0.216
                         Elapsed time (sec):       79.616
  
                   Maximum memory used (kb):      110948.
                   Average memory used (kb):           0.
  
                          Minor page faults:        28778
                          Major page faults:            0
                 Voluntary context switches:         2570
