       N       E                     dE             d eps       ncg     rms          rms(c)
DAV:   1     0.934522147982E+03    0.93452E+03   -0.54097E+04 49056   0.176E+03
DAV:   2     0.189989027305E+01   -0.93262E+03   -0.90180E+03 49056   0.401E+02
DAV:   3    -0.924179963263E+02   -0.94318E+02   -0.89646E+02 51212   0.149E+02
DAV:   4    -0.959835727771E+02   -0.35656E+01   -0.35023E+01 57524   0.284E+01
DAV:   5    -0.960760981797E+02   -0.92525E-01   -0.92300E-01 59484   0.396E+00    0.343E+01
RMM:   6    -0.103605136502E+03   -0.75290E+01   -0.42856E+02 49147   0.123E+02    0.251E+01
RMM:   7    -0.790158228128E+02    0.24589E+02   -0.92148E+01 49056   0.617E+01    0.275E+00
RMM:   8    -0.790887640705E+02   -0.72941E-01   -0.92264E+00 49056   0.157E+01    0.465E+00
RMM:   9    -0.786506263318E+02    0.43814E+00   -0.10040E+00 49057   0.635E+00    0.557E-01
RMM:  10    -0.786446375180E+02    0.59888E-02   -0.33558E-02 49059   0.753E-01    0.303E-01
RMM:  11    -0.786424880306E+02    0.21495E-02   -0.17411E-02 49056   0.570E-01    0.793E-02
RMM:  12    -0.786424151300E+02    0.72901E-04   -0.46443E-04 49063   0.958E-02    0.457E-02
RMM:  13    -0.786423994306E+02    0.15699E-04   -0.17416E-04 49056   0.735E-02    0.211E-02
RMM:  14    -0.786423881748E+02    0.11256E-04   -0.26518E-05 29615   0.321E-02    0.635E-03
RMM:  15    -0.786423881667E+02    0.80682E-08   -0.51248E-06 27632   0.115E-02
   1 F= -.78642388E+02 E0= -.78637673E+02  d E =-.786424E+02
       N       E                     dE             d eps       ncg     rms          rms(c)
DAV:   1    -0.786426960765E+02   -0.30790E-03   -0.31775E-02 52824   0.650E-01    0.169E-02
RMM:   2    -0.786427050614E+02   -0.89849E-05   -0.14806E-04 48834   0.729E-02    0.173E-02
RMM:   3    -0.786426968038E+02    0.82576E-05   -0.66601E-05 44934   0.444E-02    0.904E-03
RMM:   4    -0.786426952363E+02    0.15675E-05   -0.75808E-06 25915   0.188E-02
   2 F= -.78642695E+02 E0= -.78637980E+02  d E =-.307070E-03
       N       E                     dE             d eps       ncg     rms          rms(c)
DAV:   1    -0.786432066317E+02   -0.50983E-03   -0.28624E-01 50580   0.195E+00    0.508E-02
RMM:   2    -0.786431921678E+02    0.14464E-04   -0.91826E-04 49056   0.188E-01    0.900E-03
RMM:   3    -0.786431920382E+02    0.12959E-06   -0.41543E-05 34559   0.343E-02    0.338E-03
RMM:   4    -0.786431927915E+02   -0.75338E-06   -0.77815E-06 26712   0.176E-02
   3 F= -.78643193E+02 E0= -.78638477E+02  d E =-.804625E-03
       N       E                     dE             d eps       ncg     rms          rms(c)
DAV:   1    -0.786432175447E+02   -0.25506E-04   -0.19053E-02 51060   0.503E-01    0.130E-02
RMM:   2    -0.786432169349E+02    0.60971E-06   -0.63170E-05 42457   0.491E-02    0.226E-03
RMM:   3    -0.786432171574E+02   -0.22245E-06   -0.35159E-06 25693   0.106E-02    0.111E-03
RMM:   4    -0.786432171399E+02    0.17457E-07   -0.91574E-07 25263   0.613E-03
   4 F= -.78643217E+02 E0= -.78638501E+02  d E =-.828973E-03
       N       E                     dE             d eps       ncg     rms          rms(c)
DAV:   1    -0.786433311482E+02   -0.11399E-03   -0.13047E-02 49996   0.425E-01    0.108E-02
RMM:   2    -0.786433328063E+02   -0.16581E-05   -0.58730E-05 41306   0.472E-02    0.964E-03
RMM:   3    -0.786433325632E+02    0.24308E-06   -0.15285E-05 25706   0.227E-02    0.796E-03
RMM:   4    -0.786433310358E+02    0.15274E-05   -0.13309E-05 25442   0.233E-02
   5 F= -.78643331E+02 E0= -.78638614E+02  d E =-.113896E-03
       N       E                     dE             d eps       ncg     rms          rms(c)
DAV:   1    -0.786434357338E+02   -0.10317E-03   -0.65088E-02 49284   0.949E-01    0.241E-02
RMM:   2    -0.786434334759E+02    0.22579E-05   -0.27031E-04 49056   0.101E-01    0.519E-03
RMM:   3    -0.786434337600E+02   -0.28410E-06   -0.10227E-05 27329   0.160E-02    0.219E-03
RMM:   4    -0.786434340844E+02   -0.32442E-06   -0.27249E-06 26127   0.820E-03
   6 F= -.78643434E+02 E0= -.78638718E+02  d E =-.216944E-03
       N       E                     dE             d eps       ncg     rms          rms(c)
DAV:   1    -0.786434937977E+02   -0.60038E-04   -0.31646E-02 49964   0.655E-01    0.158E-02
RMM:   2    -0.786434961663E+02   -0.23686E-05   -0.87632E-05 48617   0.603E-02    0.145E-02
RMM:   3    -0.786434910451E+02    0.51212E-05   -0.86215E-06 25811   0.161E-02    0.731E-03
RMM:   4    -0.786434897167E+02    0.13285E-05   -0.11692E-05 25299   0.201E-02
   7 F= -.78643490E+02 E0= -.78638775E+02  d E =-.556323E-04
       N       E                     dE             d eps       ncg     rms          rms(c)
DAV:   1    -0.786435084874E+02   -0.17442E-04   -0.24607E-02 49404   0.577E-01    0.142E-02
RMM:   2    -0.786435052881E+02    0.31993E-05   -0.55558E-05 43055   0.498E-02    0.530E-04
RMM:   3    -0.786435055129E+02   -0.22483E-06   -0.25829E-06 25537   0.841E-03    0.845E-04
RMM:   4    -0.786435055812E+02   -0.68327E-07   -0.41201E-07 18246   0.394E-03
   8 F= -.78643506E+02 E0= -.78638792E+02  d E =-.714968E-04
       N       E                     dE             d eps       ncg     rms          rms(c)
DAV:   1    -0.786435054973E+02    0.15600E-07   -0.58537E-05 46756   0.284E-02    0.687E-04
RMM:   2    -0.786435054967E+02    0.61959E-09   -0.13887E-07 13128   0.306E-03    0.102E-04
RMM:   3    -0.786435054974E+02   -0.72293E-09   -0.92231E-10  2097   0.179E-03    0.928E-05
RMM:   4    -0.786435054876E+02    0.98456E-08   -0.29877E-10  1337   0.179E-03
   9 F= -.78643505E+02 E0= -.78638792E+02  d E =-.714032E-04
       N       E                     dE             d eps       ncg     rms          rms(c)
DAV:   1    -0.786435055201E+02   -0.22686E-07   -0.15963E-05 25640   0.148E-02    0.343E-04
RMM:   2    -0.786435055227E+02   -0.26642E-08   -0.22909E-07 15274   0.300E-03    0.897E-05
RMM:   3    -0.786435055103E+02    0.12427E-07   -0.15566E-09   886   0.159E-03    0.414E-05
RMM:   4    -0.786435055191E+02   -0.87899E-08   -0.34841E-09   710   0.160E-03
  10 F= -.78643506E+02 E0= -.78638792E+02  d E =-.714347E-04
       N       E                     dE             d eps       ncg     rms          rms(c)
DAV:   1    -0.786435055033E+02    0.69812E-08   -0.37867E-06 25060   0.715E-03    0.178E-04
RMM:   2    -0.786435055097E+02   -0.63378E-08   -0.56128E-10  1164   0.157E-03    0.798E-05
RMM:   3    -0.786435055135E+02   -0.38260E-08   -0.42637E-10   443   0.160E-03    0.545E-05
RMM:   4    -0.786435055127E+02    0.83315E-09   -0.29858E-10   292   0.162E-03
  11 F= -.78643506E+02 E0= -.78638792E+02  d E =-.714283E-04
       N       E                     dE             d eps       ncg     rms          rms(c)
DAV:   1    -0.786435055284E+02   -0.14921E-07   -0.15926E-06 24980   0.461E-03    0.223E-04
RMM:   2    -0.786435055158E+02    0.12598E-07   -0.93657E-11   543   0.166E-03    0.565E-05
RMM:   3    -0.786435055207E+02   -0.48681E-08   -0.52922E-10   337   0.176E-03    0.178E-05
RMM:   4    -0.786435055224E+02   -0.16956E-08   -0.20377E-10   207   0.177E-03
  12 F= -.78643506E+02 E0= -.78638792E+02  d E =-.714380E-04
       N       E                     dE             d eps       ncg     rms          rms(c)
DAV:   1    -0.786435129532E+02   -0.74325E-05   -0.28655E-03 49216   0.198E-01    0.493E-03
RMM:   2    -0.786435132401E+02   -0.28687E-06   -0.66505E-06 24582   0.189E-02    0.431E-03
RMM:   3    -0.786435141866E+02   -0.94656E-06   -0.10794E-05 24554   0.196E-02    0.798E-03
RMM:   4    -0.786435128419E+02    0.13448E-05   -0.59529E-06 24553   0.170E-02
  13 F= -.78643513E+02 E0= -.78638798E+02  d E =-.731949E-05
       N       E                     dE             d eps       ncg     rms          rms(c)
DAV:   1    -0.786435140340E+02    0.15268E-06   -0.71236E-03 49148   0.312E-01    0.762E-03
RMM:   2    -0.786435136093E+02    0.42467E-06   -0.15516E-05 25917   0.277E-02    0.183E-03
RMM:   3    -0.786435137528E+02   -0.14351E-06   -0.21793E-06 24711   0.887E-03    0.867E-04
RMM:   4    -0.786435137287E+02    0.24090E-07   -0.51394E-07 24565   0.472E-03
  14 F= -.78643514E+02 E0= -.78638797E+02  d E =-.820630E-05
       N       E                     dE             d eps       ncg     rms          rms(c)
DAV:   1    -0.786435140723E+02   -0.31954E-06   -0.29282E-04 49748   0.636E-02    0.159E-03
RMM:   2    -0.786435139903E+02    0.82023E-07   -0.67499E-07 24564   0.582E-03    0.486E-04
RMM:   3    -0.786435139826E+02    0.77041E-08   -0.77105E-11  2302   0.144E-03    0.454E-04
RMM:   4    -0.786435139593E+02    0.23293E-07   -0.24772E-11  1517   0.171E-03
  15 F= -.78643514E+02 E0= -.78638798E+02  d E =-.843692E-05
       N       E                     dE             d eps       ncg     rms          rms(c)
DAV:   1    -0.786435151297E+02   -0.11471E-05   -0.48859E-04 49364   0.820E-02    0.205E-03
RMM:   2    -0.786435150466E+02    0.83087E-07   -0.16987E-06 24558   0.883E-03    0.194E-03
RMM:   3    -0.786435151739E+02   -0.12737E-06   -0.10052E-06 24529   0.428E-03    0.137E-03
RMM:   4    -0.786435151379E+02    0.36027E-07   -0.72521E-07 23866   0.517E-03
  16 F= -.78643515E+02 E0= -.78638799E+02  d E =-.117861E-05
