AlCu                                    
           1
    11.998576   -0.000043    0.008568
     0.000000    4.104732   -0.020524
    -3.933974   -0.028424    5.684858
   Al   Cu
  10  10
Direct configuration=     1
   0.50000000  0.00000000  0.50000000
   0.15587366  0.00000000  0.46137374
   0.84412632  0.00000000  0.53862623
   0.87805559  0.50000000  0.99541334
   0.12194440  0.50000000  0.00458663
   0.00000000  0.50000000  0.50000000
   0.65587368  0.50000000  0.46137374
   0.34412635  0.50000000  0.53862623
   0.37805559  0.00000000  0.99541334
   0.62194441  0.00000000  0.00458663
   0.00000000  0.00000000  0.00000000
   0.25805145  0.00000000  0.24172886
   0.74194852  0.00000000  0.75827112
   0.10866387  0.00000000  0.77167894
   0.89133614  0.00000000  0.22832103
   0.50000000  0.50000000  0.00000000
   0.75805148  0.50000000  0.24172886
   0.24194855  0.50000000  0.75827112
   0.60866386  0.50000000  0.77167894
   0.39133614  0.50000000  0.22832103
Direct configuration=     2
   0.50000000 -0.00000000  0.50000000
   0.15589360 -0.00017684  0.46145562
   0.84410639  0.00017684  0.53854435
   0.87801651  0.50001201  0.99541773
   0.12198348  0.49998799  0.00458225
  -0.00000000  0.50000000  0.50000000
   0.65589361  0.49982316  0.46145562
   0.34410642  0.50017684  0.53854435
   0.37801651  0.00001201  0.99541773
   0.62198349 -0.00001201  0.00458225
  -0.00000000 -0.00000000 -0.00000000
   0.25804365  0.00006589  0.24155259
   0.74195632 -0.00006589  0.75844739
   0.10867906 -0.00001006  0.77171954
   0.89132095  0.00001006  0.22828043
   0.50000000  0.50000000 -0.00000000
   0.75804368  0.50006589  0.24155259
   0.24195635  0.49993411  0.75844739
   0.60867905  0.49998994  0.77171954
   0.39132095  0.50001006  0.22828043
Direct configuration=     3
   0.50000000 -0.00000000  0.50000000
   0.15595341 -0.00070734  0.46170126
   0.84404658  0.00070734  0.53829871
   0.87789928  0.50004803  0.99543087
   0.12210071  0.49995197  0.00456910
  -0.00000000  0.50000000  0.50000000
   0.65595342  0.49929266  0.46170126
   0.34404661  0.50070734  0.53829871
   0.37789928  0.00004803  0.99543087
   0.62210072 -0.00004803  0.00456910
  -0.00000000 -0.00000000 -0.00000000
   0.25802027  0.00026355  0.24102378
   0.74197970 -0.00026355  0.75897620
   0.10872464 -0.00004026  0.77184135
   0.89127537  0.00004026  0.22815862
   0.50000000  0.50000000 -0.00000000
   0.75802030  0.50026355  0.24102378
   0.24197973  0.49973645  0.75897620
   0.60872463  0.49995974  0.77184135
   0.39127537  0.50004026  0.22815862
Direct configuration=     4
   0.50000000 -0.00000000  0.50000000
   0.15596883 -0.00084412  0.46176460
   0.84403116  0.00084412  0.53823538
   0.87786905  0.50005732  0.99543426
   0.12213094  0.49994268  0.00456572
  -0.00000000  0.50000000  0.50000000
   0.65596884  0.49915588  0.46176460
   0.34403119  0.50084412  0.53823538
   0.37786905  0.00005732  0.99543426
   0.62213095 -0.00005732  0.00456572
  -0.00000000 -0.00000000 -0.00000000
   0.25801424  0.00031452  0.24088744
   0.74198573 -0.00031452  0.75911254
   0.10873639 -0.00004804  0.77187275
   0.89126362  0.00004804  0.22812722
   0.50000000  0.50000000 -0.00000000
   0.75801427  0.50031452  0.24088744
   0.24198576  0.49968548  0.75911254
   0.60873638  0.49995196  0.77187275
   0.39126362  0.50004804  0.22812722
Direct configuration=     5
   0.50000000 -0.00000000  0.50000000
   0.15604299 -0.00103950  0.46177479
   0.84395700  0.00103950  0.53822518
   0.87789049  0.50002599  0.99545770
   0.12210950  0.49997401  0.00454227
  -0.00000000  0.50000000  0.50000000
   0.65604300  0.49896050  0.46177479
   0.34395703  0.50103950  0.53822518
   0.37789049  0.00002599  0.99545770
   0.62210951 -0.00002599  0.00454227
  -0.00000000 -0.00000000  0.00000000
   0.25799258  0.00043307  0.24081996
   0.74200739 -0.00043307  0.75918003
   0.10869345 -0.00008146  0.77185292
   0.89130656  0.00008146  0.22814705
   0.50000000  0.50000000  0.00000000
   0.75799261  0.50043307  0.24081996
   0.24200742  0.49956693  0.75918003
   0.60869344  0.49991854  0.77185292
   0.39130656  0.50008146  0.22814705
Direct configuration=     6
   0.50000000  0.00000000  0.50000000
   0.15620863 -0.00147594  0.46179758
   0.84379135  0.00147594  0.53820239
   0.87793839  0.49995599  0.99551006
   0.12206160  0.50004401  0.00448991
  -0.00000000  0.50000000  0.50000000
   0.65620865  0.49852406  0.46179758
   0.34379138  0.50147594  0.53820239
   0.37793839 -0.00004401  0.99551006
   0.62206161  0.00004401  0.00448991
  -0.00000000  0.00000000  0.00000000
   0.25794422  0.00069790  0.24066921
   0.74205575 -0.00069790  0.75933078
   0.10859754 -0.00015611  0.77180861
   0.89140248  0.00015611  0.22819136
   0.50000000  0.50000000  0.00000000
   0.75794425  0.50069790  0.24066921
   0.24205578  0.49930210  0.75933078
   0.60859752  0.49984389  0.77180861
   0.39140248  0.50015611  0.22819136
Direct configuration=     7
   0.50000000  0.00000000  0.50000000
   0.15624343 -0.00160142  0.46187438
   0.84375655  0.00160142  0.53812560
   0.87797293  0.49990808  0.99554440
   0.12202706  0.50009192  0.00445558
  -0.00000000  0.50000000  0.50000000
   0.65624345  0.49839858  0.46187438
   0.34375658  0.50160142  0.53812560
   0.37797293 -0.00009192  0.99554440
   0.62202707  0.00009192  0.00445558
  -0.00000000  0.00000000  0.00000000
   0.25797257  0.00086012  0.24066298
   0.74202740 -0.00086012  0.75933701
   0.10852060 -0.00018593  0.77164735
   0.89147941  0.00018593  0.22835262
   0.50000000  0.50000000  0.00000000
   0.75797260  0.50086012  0.24066298
   0.24202743  0.49913988  0.75933701
   0.60852059  0.49981407  0.77164735
   0.39147941  0.50018593  0.22835262
Direct configuration=     8
   0.50000000  0.00000000  0.50000000
   0.15627412 -0.00171207  0.46194209
   0.84372587  0.00171207  0.53805788
   0.87800339  0.49986584  0.99557467
   0.12199660  0.50013416  0.00442530
  -0.00000000  0.50000000  0.50000000
   0.65627413  0.49828793  0.46194209
   0.34372590  0.50171207  0.53805788
   0.37800339 -0.00013416  0.99557467
   0.62199661  0.00013416  0.00442530
  -0.00000000  0.00000000  0.00000000
   0.25799756  0.00100316  0.24065748
   0.74200241 -0.00100316  0.75934251
   0.10845276 -0.00021224  0.77150517
   0.89154725  0.00021224  0.22849480
   0.50000000  0.50000000  0.00000000
   0.75799759  0.50100316  0.24065748
   0.24200244  0.49899684  0.75934251
   0.60845275  0.49978776  0.77150517
   0.39154725  0.50021224  0.22849480
Direct configuration=     9
   0.50000000  0.00000000  0.50000000
   0.15627262 -0.00170665  0.46193878
   0.84372737  0.00170665  0.53806119
   0.87800190  0.49986791  0.99557319
   0.12199810  0.50013209  0.00442679
  -0.00000000  0.50000000  0.50000000
   0.65627263  0.49829335  0.46193878
   0.34372740  0.50170665  0.53806119
   0.37800190 -0.00013209  0.99557319
   0.62199810  0.00013209  0.00442679
  -0.00000000  0.00000000  0.00000000
   0.25799634  0.00099615  0.24065775
   0.74200363 -0.00099615  0.75934224
   0.10845609 -0.00021095  0.77151213
   0.89154393  0.00021095  0.22848784
   0.50000000  0.50000000  0.00000000
   0.75799637  0.50099615  0.24065775
   0.24200366  0.49900385  0.75934224
   0.60845607  0.49978905  0.77151213
   0.39154393  0.50021095  0.22848784
Direct configuration=    10
   0.50000000  0.00000000  0.50000000
   0.15627340 -0.00170949  0.46194052
   0.84372658  0.00170949  0.53805946
   0.87800268  0.49986682  0.99557397
   0.12199731  0.50013318  0.00442601
  -0.00000000  0.50000000  0.50000000
   0.65627342  0.49829051  0.46194052
   0.34372661  0.50170949  0.53805946
   0.37800268 -0.00013318  0.99557397
   0.62199732  0.00013318  0.00442601
  -0.00000000  0.00000000  0.00000000
   0.25799698  0.00099982  0.24065761
   0.74200299 -0.00099982  0.75934238
   0.10845434 -0.00021162  0.77150848
   0.89154567  0.00021162  0.22849149
   0.50000000  0.50000000  0.00000000
   0.75799701  0.50099982  0.24065761
   0.24200302  0.49900018  0.75934238
   0.60845433  0.49978838  0.77150848
   0.39154567  0.50021162  0.22849149
Direct configuration=    11
   0.50000000  0.00000000  0.50000000
   0.15627301 -0.00170807  0.46193965
   0.84372698  0.00170807  0.53806032
   0.87800229  0.49986737  0.99557358
   0.12199771  0.50013263  0.00442640
  -0.00000000  0.50000000  0.50000000
   0.65627302  0.49829193  0.46193965
   0.34372701  0.50170807  0.53806032
   0.37800229 -0.00013263  0.99557358
   0.62199771  0.00013263  0.00442640
  -0.00000000  0.00000000  0.00000000
   0.25799666  0.00099799  0.24065768
   0.74200331 -0.00099799  0.75934231
   0.10845522 -0.00021128  0.77151031
   0.89154480  0.00021128  0.22848966
   0.50000000  0.50000000  0.00000000
   0.75799669  0.50099799  0.24065768
   0.24200334  0.49900201  0.75934231
   0.60845520  0.49978872  0.77151031
   0.39154480  0.50021128  0.22848966
Direct configuration=    12
   0.50000000  0.00000000  0.50000000
   0.15627326 -0.00170898  0.46194021
   0.84372672  0.00170898  0.53805976
   0.87800254  0.49986702  0.99557383
   0.12199745  0.50013298  0.00442615
  -0.00000000  0.50000000  0.50000000
   0.65627328  0.49829102  0.46194021
   0.34372675  0.50170898  0.53805976
   0.37800254 -0.00013298  0.99557383
   0.62199746  0.00013298  0.00442615
  -0.00000000  0.00000000  0.00000000
   0.25799687  0.00099917  0.24065763
   0.74200310 -0.00099917  0.75934235
   0.10845465 -0.00021150  0.77150913
   0.89154536  0.00021150  0.22849084
   0.50000000  0.50000000  0.00000000
   0.75799690  0.50099917  0.24065763
   0.24200313  0.49900083  0.75934235
   0.60845464  0.49978850  0.77150913
   0.39154536  0.50021150  0.22849084
Direct configuration=    13
   0.50000000  0.00000000  0.50000000
   0.15627503 -0.00166883  0.46194635
   0.84372496  0.00166883  0.53805362
   0.87798762  0.49984779  0.99558205
   0.12201237  0.50015221  0.00441793
  -0.00000000  0.50000000  0.50000000
   0.65627504  0.49833117  0.46194635
   0.34372499  0.50166883  0.53805362
   0.37798762 -0.00015221  0.99558205
   0.62201238  0.00015221  0.00441793
  -0.00000000  0.00000000  0.00000000
   0.25797638  0.00103113  0.24063349
   0.74202359 -0.00103113  0.75936650
   0.10843008 -0.00020786  0.77146515
   0.89156993  0.00020786  0.22853482
   0.50000000  0.50000000  0.00000000
   0.75797641  0.50103113  0.24063349
   0.24202362  0.49896887  0.75936650
   0.60843007  0.49979214  0.77146515
   0.39156993  0.50020786  0.22853482
Direct configuration=    14
   0.50000000  0.00000000  0.50000000
   0.15627782 -0.00160550  0.46195605
   0.84372217  0.00160550  0.53804392
   0.87796409  0.49981747  0.99559501
   0.12203590  0.50018253  0.00440496
  -0.00000000  0.50000000  0.50000000
   0.65627783  0.49839450  0.46195605
   0.34372220  0.50160550  0.53804392
   0.37796409 -0.00018253  0.99559501
   0.62203591  0.00018253  0.00440496
  -0.00000000  0.00000000  0.00000000
   0.25794407  0.00108155  0.24059540
   0.74205590 -0.00108155  0.75940459
   0.10839132 -0.00020211  0.77139577
   0.89160870  0.00020211  0.22860420
   0.50000000  0.50000000  0.00000000
   0.75794410  0.50108155  0.24059540
   0.24205593  0.49891845  0.75940459
   0.60839130  0.49979789  0.77139577
   0.39160870  0.50020211  0.22860420
Direct configuration=    15
   0.50000000  0.00000000  0.50000000
   0.15627725 -0.00161835  0.46195409
   0.84372273  0.00161835  0.53804589
   0.87796887  0.49982362  0.99559238
   0.12203113  0.50017638  0.00440759
  -0.00000000  0.50000000  0.50000000
   0.65627727  0.49838165  0.46195409
   0.34372276  0.50161835  0.53804589
   0.37796887 -0.00017638  0.99559238
   0.62203113  0.00017638  0.00440759
  -0.00000000  0.00000000  0.00000000
   0.25795063  0.00107131  0.24060313
   0.74204934 -0.00107131  0.75939686
   0.10839918 -0.00020327  0.77140985
   0.89160083  0.00020327  0.22859012
   0.50000000  0.50000000  0.00000000
   0.75795066  0.50107131  0.24060313
   0.24204937  0.49892869  0.75939686
   0.60839917  0.49979673  0.77140985
   0.39160083  0.50020327  0.22859012
Direct configuration=    16
   0.50000000  0.00000000  0.50000000
   0.15628707 -0.00160160  0.46195189
   0.84371292  0.00160160  0.53804808
   0.87796473  0.49982278  0.99560223
   0.12203526  0.50017722  0.00439775
  -0.00000000  0.50000000  0.50000000
   0.65628708  0.49839840  0.46195189
   0.34371295  0.50160160  0.53804808
   0.37796473 -0.00017722  0.99560223
   0.62203527  0.00017722  0.00439775
  -0.00000000  0.00000000  0.00000000
   0.25795840  0.00106135  0.24060402
   0.74204157 -0.00106135  0.75939597
   0.10838835 -0.00020545  0.77139266
   0.89161166  0.00020545  0.22860731
   0.50000000  0.50000000  0.00000000
   0.75795843  0.50106135  0.24060402
   0.24204160  0.49893865  0.75939597
   0.60838834  0.49979455  0.77139266
   0.39161166  0.50020545  0.22860731
