       N       E                     dE             d eps       ncg     rms          rms(c)
DAV:   1     0.881675248229E+03    0.88168E+03   -0.84086E+04 23272   0.176E+03
DAV:   2    -0.196520606801E+03   -0.10782E+04   -0.10530E+04 28528   0.351E+02
DAV:   3    -0.250527643482E+03   -0.54007E+02   -0.53804E+02 27416   0.849E+01
DAV:   4    -0.251142428157E+03   -0.61478E+00   -0.61318E+00 27304   0.994E+00
DAV:   5    -0.251152375093E+03   -0.99469E-02   -0.99342E-02 27152   0.122E+00    0.298E+01
RMM:   6    -0.226390252091E+03    0.24762E+02   -0.11129E+02 23232   0.317E+01    0.796E+00
RMM:   7    -0.226296705300E+03    0.93547E-01   -0.24681E+00 23232   0.408E+00    0.542E+00
RMM:   8    -0.226328237668E+03   -0.31532E-01   -0.58978E-01 23232   0.383E+00    0.106E+00
RMM:   9    -0.226307708679E+03    0.20529E-01   -0.22274E-01 23232   0.142E+00    0.285E-01
RMM:  10    -0.226307949852E+03   -0.24117E-03   -0.47505E-03 23261   0.236E-01    0.258E-01
RMM:  11    -0.226306433617E+03    0.15162E-02   -0.88250E-03 23232   0.293E-01    0.250E-02
RMM:  12    -0.226306428168E+03    0.54489E-05   -0.85074E-05 23232   0.348E-02    0.323E-03
RMM:  13    -0.226306428526E+03   -0.35795E-06   -0.11201E-06 13764   0.402E-03
   1 F= -.22630643E+03 E0= -.22630643E+03  d E =-.226306E+03
       N       E                     dE             d eps       ncg     rms          rms(c)
DAV:   1    -0.226316862444E+03   -0.10434E-01   -0.28422E-01 27360   0.209E+00    0.111E-01
RMM:   2    -0.226317615435E+03   -0.75299E-03   -0.89951E-03 23232   0.344E-01    0.581E-02
RMM:   3    -0.226317575894E+03    0.39541E-04   -0.39232E-04 23232   0.644E-02    0.614E-02
RMM:   4    -0.226317498120E+03    0.77775E-04   -0.46509E-04 23232   0.675E-02    0.857E-03
RMM:   5    -0.226317497950E+03    0.17010E-06   -0.98137E-06 21725   0.109E-02
   2 F= -.22631750E+03 E0= -.22631750E+03  d E =-.110694E-01
       N       E                     dE             d eps       ncg     rms          rms(c)
DAV:   1    -0.226319869471E+03   -0.23714E-02   -0.18692E-01 25608   0.170E+00    0.901E-02
RMM:   2    -0.226320291965E+03   -0.42249E-03   -0.53775E-03 23232   0.274E-01    0.770E-03
RMM:   3    -0.226320274006E+03    0.17959E-04   -0.72479E-05 23498   0.284E-02    0.337E-03
RMM:   4    -0.226320274424E+03   -0.41784E-06   -0.56123E-06 18763   0.774E-03
   3 F= -.22632027E+03 E0= -.22632027E+03  d E =-.138459E-01
       N       E                     dE             d eps       ncg     rms          rms(c)
DAV:   1    -0.226320821625E+03   -0.54762E-03   -0.33703E-01 25176   0.236E+00    0.733E-02
RMM:   2    -0.226321692577E+03   -0.87095E-03   -0.94637E-03 23232   0.356E-01    0.119E-01
RMM:   3    -0.226321442731E+03    0.24985E-03   -0.29685E-04 23232   0.593E-02    0.737E-02
RMM:   4    -0.226321341959E+03    0.10077E-03   -0.39159E-04 23232   0.611E-02    0.191E-02
RMM:   5    -0.226321342201E+03   -0.24198E-06   -0.14147E-04 23232   0.350E-02    0.133E-02
RMM:   6    -0.226321337079E+03    0.51219E-05   -0.22001E-05 22903   0.152E-02    0.177E-03
RMM:   7    -0.226321336928E+03    0.15160E-06   -0.30705E-07 13711   0.204E-03
   4 F= -.22632134E+03 E0= -.22632134E+03  d E =-.106250E-02
       N       E                     dE             d eps       ncg     rms          rms(c)
DAV:   1    -0.226321341265E+03   -0.41859E-05   -0.43902E-03 27288   0.270E-01    0.840E-03
RMM:   2    -0.226321348357E+03   -0.70920E-05   -0.97884E-05 23232   0.369E-02    0.667E-04
RMM:   3    -0.226321348087E+03    0.26981E-06   -0.11100E-06 14145   0.358E-03    0.432E-04
RMM:   4    -0.226321348101E+03   -0.14004E-07   -0.13796E-07 11413   0.133E-03
   5 F= -.22632135E+03 E0= -.22632135E+03  d E =-.107368E-02
       N       E                     dE             d eps       ncg     rms          rms(c)
DAV:   1    -0.226321422236E+03   -0.74148E-04   -0.35808E-02 24936   0.760E-01    0.229E-02
RMM:   2    -0.226321508688E+03   -0.86453E-04   -0.84882E-04 23232   0.108E-01    0.314E-02
RMM:   3    -0.226321485699E+03    0.22990E-04   -0.13142E-04 23232   0.368E-02    0.715E-03
RMM:   4    -0.226321484567E+03    0.11312E-05   -0.46253E-06 19904   0.714E-03    0.322E-03
RMM:   5    -0.226321484316E+03    0.25137E-06   -0.36129E-07 13721   0.209E-03
   6 F= -.22632148E+03 E0= -.22632148E+03  d E =-.136215E-03
       N       E                     dE             d eps       ncg     rms          rms(c)
DAV:   1    -0.226321421825E+03    0.62742E-04   -0.81312E-02 24424   0.115E+00    0.346E-02
RMM:   2    -0.226321565669E+03   -0.14384E-03   -0.16272E-03 23232   0.152E-01    0.447E-03
RMM:   3    -0.226321562340E+03    0.33290E-05   -0.25346E-05 21464   0.153E-02    0.325E-03
RMM:   4    -0.226321562334E+03    0.57289E-08   -0.10233E-06 14042   0.310E-03
   7 F= -.22632156E+03 E0= -.22632156E+03  d E =-.214233E-03
       N       E                     dE             d eps       ncg     rms          rms(c)
DAV:   1    -0.226321564999E+03   -0.26586E-05   -0.14419E-02 25224   0.485E-01    0.150E-02
RMM:   2    -0.226321604147E+03   -0.39149E-04   -0.38150E-04 23232   0.721E-02    0.248E-02
RMM:   3    -0.226321591102E+03    0.13046E-04   -0.77751E-05 23232   0.282E-02    0.694E-03
RMM:   4    -0.226321590749E+03    0.35306E-06   -0.62281E-06 21014   0.804E-03
   8 F= -.22632159E+03 E0= -.22632159E+03  d E =-.284141E-04
       N       E                     dE             d eps       ncg     rms          rms(c)
DAV:   1    -0.226321590316E+03    0.78544E-06   -0.30974E-04 27400   0.712E-02    0.441E-03
RMM:   2    -0.226321590796E+03   -0.48009E-06   -0.72813E-06 20441   0.101E-02    0.265E-03
RMM:   3    -0.226321590669E+03    0.12717E-06   -0.22268E-07 12256   0.167E-03    0.169E-03
RMM:   4    -0.226321590626E+03    0.43561E-07   -0.16509E-07 11989   0.137E-03
   9 F= -.22632159E+03 E0= -.22632159E+03  d E =-.282911E-04
       N       E                     dE             d eps       ncg     rms          rms(c)
DAV:   1    -0.226321590612E+03    0.57490E-07   -0.18151E-05 23512   0.172E-02    0.684E-04
RMM:   2    -0.226321590642E+03   -0.30106E-07   -0.35270E-07 11968   0.234E-03    0.197E-04
RMM:   3    -0.226321590649E+03   -0.73754E-08   -0.93357E-09  3338   0.621E-04    0.915E-05
RMM:   4    -0.226321590653E+03   -0.34555E-08   -0.13917E-10  1167   0.523E-04
  10 F= -.22632159E+03 E0= -.22632159E+03  d E =-.283181E-04
       N       E                     dE             d eps       ncg     rms          rms(c)
DAV:   1    -0.226321590651E+03   -0.20518E-08   -0.19403E-06 16200   0.574E-03    0.250E-04
RMM:   2    -0.226321590655E+03   -0.37499E-08   -0.68406E-08  9636   0.126E-03    0.704E-05
RMM:   3    -0.226321590653E+03    0.17405E-08   -0.10919E-11   713   0.393E-04    0.519E-05
RMM:   4    -0.226321590653E+03    0.33359E-09    0.00000E+00   602   0.400E-04
  11 F= -.22632159E+03 E0= -.22632159E+03  d E =-.283184E-04
       N       E                     dE             d eps       ncg     rms          rms(c)
DAV:   1    -0.226321590649E+03    0.40363E-08   -0.60079E-07 13544   0.320E-03    0.145E-04
RMM:   2    -0.226321590651E+03   -0.14665E-08   -0.85164E-09  2907   0.792E-04    0.880E-05
RMM:   3    -0.226321590651E+03   -0.32477E-09   -0.67231E-11   470   0.626E-04    0.623E-05
RMM:   4    -0.226321590652E+03   -0.93266E-09   -0.10652E-09   753   0.645E-04
  12 F= -.22632159E+03 E0= -.22632159E+03  d E =-.283174E-04
       N       E                     dE             d eps       ncg     rms          rms(c)
DAV:   1    -0.226321590653E+03   -0.21064E-08   -0.15352E-07 13800   0.153E-03    0.119E-04
RMM:   2    -0.226321590651E+03    0.21339E-08    0.00000E+00   635   0.358E-04    0.264E-05
RMM:   3    -0.226321590651E+03   -0.93507E-11    0.00000E+00   378   0.363E-04    0.191E-05
RMM:   4    -0.226321590652E+03   -0.11360E-08    0.00000E+00   342   0.361E-04
  13 F= -.22632159E+03 E0= -.22632159E+03  d E =-.283176E-04
       N       E                     dE             d eps       ncg     rms          rms(c)
DAV:   1    -0.226321590652E+03   -0.14550E-08   -0.44457E-08 13040   0.815E-04    0.627E-05
RMM:   2    -0.226321590653E+03   -0.15521E-09    0.00000E+00   491   0.241E-04    0.151E-05
RMM:   3    -0.226321590653E+03   -0.34694E-09    0.00000E+00   308   0.242E-04    0.661E-06
RMM:   4    -0.226321590653E+03    0.29641E-09    0.00000E+00   281   0.240E-04
  14 F= -.22632159E+03 E0= -.22632159E+03  d E =-.283181E-04
       N       E                     dE             d eps       ncg     rms          rms(c)
DAV:   1    -0.226321590653E+03    0.11488E-09   -0.93875E-09 13176   0.367E-04    0.416E-05
RMM:   2    -0.226321590653E+03    0.18832E-09    0.00000E+00   454   0.105E-04    0.462E-06
RMM:   3    -0.226321590653E+03    0.53859E-10    0.00000E+00   285   0.106E-04    0.487E-06
RMM:   4    -0.226321590653E+03   -0.19500E-09    0.00000E+00   242   0.105E-04
  15 F= -.22632159E+03 E0= -.22632159E+03  d E =-.283183E-04
       N       E                     dE             d eps       ncg     rms          rms(c)
DAV:   1    -0.226321590653E+03   -0.33515E-09   -0.27012E-09 12664   0.213E-04    0.201E-05
RMM:   2    -0.226321590653E+03    0.67985E-10    0.00000E+00   332   0.722E-05    0.266E-06
RMM:   3    -0.226321590653E+03    0.71765E-10    0.00000E+00   248   0.718E-05    0.118E-06
RMM:   4    -0.226321590653E+03    0.44651E-10    0.00000E+00   213   0.713E-05
  16 F= -.22632159E+03 E0= -.22632159E+03  d E =-.283182E-04
       N       E                     dE             d eps       ncg     rms          rms(c)
DAV:   1    -0.226321591131E+03   -0.47859E-06   -0.20828E-04 24032   0.593E-02    0.194E-03
RMM:   2    -0.226321591605E+03   -0.47357E-06   -0.47148E-06 16966   0.823E-03    0.128E-03
RMM:   3    -0.226321591666E+03   -0.61416E-07   -0.11961E-06 12797   0.354E-03    0.265E-03
RMM:   4    -0.226321591619E+03    0.47585E-07   -0.16126E-06 11838   0.410E-03
  17 F= -.22632159E+03 E0= -.22632159E+03  d E =-.966032E-06
       N       E                     dE             d eps       ncg     rms          rms(c)
DAV:   1    -0.226321591548E+03    0.11820E-06   -0.16255E-07 15352   0.178E-03    0.124E-03
RMM:   2    -0.226321591480E+03    0.68423E-07   -0.15557E-07 11200   0.136E-03    0.280E-04
RMM:   3    -0.226321591480E+03   -0.21885E-11   -0.88523E-09  2650   0.729E-04    0.206E-04
RMM:   4    -0.226321591479E+03    0.27555E-09   -0.35530E-11   686   0.621E-04
  18 F= -.22632159E+03 E0= -.22632159E+03  d E =-.826718E-06
       N       E                     dE             d eps       ncg     rms          rms(c)
DAV:   1    -0.226321591518E+03   -0.37951E-07   -0.55148E-05 22696   0.301E-02    0.106E-03
RMM:   2    -0.226321591711E+03   -0.19364E-06   -0.13956E-06 11703   0.459E-03    0.167E-03
RMM:   3    -0.226321591687E+03    0.24290E-07   -0.46913E-07 11683   0.237E-03    0.126E-03
RMM:   4    -0.226321591691E+03   -0.39413E-08   -0.29846E-07 11678   0.174E-03
  19 F= -.22632159E+03 E0= -.22632159E+03  d E =-.211522E-06
       N       E                     dE             d eps       ncg     rms          rms(c)
DAV:   1    -0.226321591636E+03    0.50922E-07   -0.72468E-07 13000   0.354E-03    0.421E-04
RMM:   2    -0.226321591643E+03   -0.71664E-08   -0.52621E-08 10902   0.101E-03    0.170E-04
RMM:   3    -0.226321591644E+03   -0.52935E-09   -0.17277E-09  1149   0.418E-04    0.494E-05
RMM:   4    -0.226321591645E+03   -0.14850E-08   -0.29143E-10   590   0.467E-04
  20 F= -.22632159E+03 E0= -.22632159E+03  d E =-.165840E-06
       N       E                     dE             d eps       ncg     rms          rms(c)
DAV:   1    -0.226321591642E+03    0.18697E-08   -0.32289E-07 12768   0.237E-03    0.167E-04
RMM:   2    -0.226321591639E+03    0.26889E-08    0.00000E+00   699   0.603E-04    0.104E-04
RMM:   3    -0.226321591638E+03    0.12351E-08    0.00000E+00   248   0.613E-04    0.732E-05
RMM:   4    -0.226321591636E+03    0.20617E-08    0.00000E+00   246   0.647E-04
  21 F= -.22632159E+03 E0= -.22632159E+03  d E =-.156500E-06
       N       E                     dE             d eps       ncg     rms          rms(c)
DAV:   1    -0.226321591638E+03   -0.51585E-10   -0.92054E-08 12768   0.116E-03    0.127E-04
RMM:   2    -0.226321591640E+03   -0.17199E-08    0.00000E+00   685   0.306E-04    0.462E-05
RMM:   3    -0.226321591639E+03    0.89230E-09    0.00000E+00   220   0.288E-04    0.997E-06
RMM:   4    -0.226321591639E+03   -0.55107E-09    0.00000E+00   171   0.291E-04
  22 F= -.22632159E+03 E0= -.22632159E+03  d E =-.159992E-06
       N       E                     dE             d eps       ncg     rms          rms(c)
DAV:   1    -0.226321591639E+03   -0.63963E-09   -0.10727E-08 12616   0.390E-04    0.514E-05
RMM:   2    -0.226321591639E+03    0.44264E-09    0.00000E+00   509   0.123E-04    0.145E-05
RMM:   3    -0.226321591639E+03    0.39230E-09    0.00000E+00   185   0.122E-04    0.446E-06
RMM:   4    -0.226321591638E+03    0.23857E-09    0.00000E+00   136   0.120E-04
  23 F= -.22632159E+03 E0= -.22632159E+03  d E =-.159007E-06
       N       E                     dE             d eps       ncg     rms          rms(c)
DAV:   1    -0.226321591639E+03   -0.12321E-09   -0.17766E-09 12656   0.164E-04    0.246E-05
RMM:   2    -0.226321591639E+03   -0.39026E-09    0.00000E+00   418   0.552E-05    0.395E-06
RMM:   3    -0.226321591639E+03    0.91546E-10    0.00000E+00   149   0.557E-05    0.165E-06
RMM:   4    -0.226321591639E+03    0.54001E-12    0.00000E+00   123   0.556E-05
  24 F= -.22632159E+03 E0= -.22632159E+03  d E =-.159667E-06
       N       E                     dE             d eps       ncg     rms          rms(c)
DAV:   1    -0.226321591641E+03   -0.18485E-08   -0.14809E-05 21744   0.154E-02    0.533E-04
RMM:   2    -0.226321591674E+03   -0.32921E-07   -0.40016E-07 11659   0.239E-03    0.715E-04
RMM:   3    -0.226321591655E+03    0.18345E-07   -0.10354E-08  3879   0.784E-04    0.215E-04
RMM:   4    -0.226321591648E+03    0.73616E-08   -0.52873E-09  1870   0.715E-04
  25 F= -.22632159E+03 E0= -.22632159E+03  d E =-.906343E-08
       N       E                     dE             d eps       ncg     rms          rms(c)
DAV:   1    -0.226321591657E+03   -0.18118E-08   -0.78199E-08 12592   0.105E-03    0.218E-04
RMM:   2    -0.226321591663E+03   -0.59330E-08    0.00000E+00  1852   0.351E-04    0.863E-05
RMM:   3    -0.226321591670E+03   -0.66521E-08    0.00000E+00   274   0.474E-04    0.218E-05
RMM:   4    -0.226321591668E+03    0.14346E-08    0.00000E+00   121   0.456E-04
  26 F= -.22632159E+03 E0= -.22632159E+03  d E =-.293873E-07
       N       E                     dE             d eps       ncg     rms          rms(c)
DAV:   1    -0.226321591670E+03    0.17613E-09   -0.30819E-08 12272   0.615E-04    0.127E-04
RMM:   2    -0.226321591666E+03    0.33132E-08    0.00000E+00   619   0.186E-04    0.339E-05
RMM:   3    -0.226321591667E+03   -0.76400E-09    0.00000E+00   139   0.210E-04    0.134E-05
RMM:   4    -0.226321591668E+03   -0.60101E-09    0.00000E+00   116   0.228E-04
  27 F= -.22632159E+03 E0= -.22632159E+03  d E =-.286975E-07
       N       E                     dE             d eps       ncg     rms          rms(c)
DAV:   1    -0.226321591668E+03   -0.87877E-09   -0.82950E-09 12408   0.384E-04    0.679E-05
RMM:   2    -0.226321591669E+03   -0.97651E-09    0.00000E+00   449   0.122E-04    0.154E-05
RMM:   3    -0.226321591669E+03   -0.26128E-09    0.00000E+00   132   0.138E-04    0.595E-06
RMM:   4    -0.226321591669E+03    0.57483E-09    0.00000E+00   100   0.142E-04
  28 F= -.22632159E+03 E0= -.22632159E+03  d E =-.296383E-07
