AlO                                     
           1
     4.802777   -0.048028    0.000000
    -2.442982    4.183340    0.000000
     0.000000    0.000000   12.840574
   Al   O 
  12  18
Direct configuration=     1
   0.00000000  0.00000000  0.35221672
   0.00000000  0.00000000  0.64778325
   0.00000000  0.00000000  0.14778328
   0.00000000  0.00000000  0.85221675
   0.66666669  0.33333334  0.68555007
   0.66666669  0.33333334  0.98111662
   0.66666669  0.33333334  0.48111662
   0.66666669  0.33333334  0.18555001
   0.33333334  0.66666669  0.01888338
   0.33333334  0.66666669  0.31444993
   0.33333334  0.66666669  0.81444993
   0.33333334  0.66666669  0.51888338
   0.30611761  0.00000000  0.25000000
   0.69388239  0.00000000  0.75000000
   0.00000000  0.30611761  0.25000000
   0.00000000  0.69388239  0.75000000
   0.69388239  0.69388239  0.25000000
   0.30611761  0.30611761  0.75000000
   0.97278430  0.33333334  0.58333331
   0.36054904  0.33333334  0.08333334
   0.66666669  0.63945093  0.58333331
   0.66666669  0.02721572  0.08333334
   0.36054904  0.02721572  0.58333331
   0.97278430  0.63945093  0.08333334
   0.63945093  0.66666669  0.91666669
   0.02721572  0.66666669  0.41666666
   0.33333334  0.97278430  0.91666669
   0.33333334  0.36054904  0.41666666
   0.02721572  0.36054904  0.91666669
   0.63945093  0.97278430  0.41666666
Direct configuration=     2
   0.00053649 -0.00042945  0.35253231
  -0.00053649  0.00042945  0.64746766
  -0.00104301 -0.00047544  0.14746788
   0.00104301  0.00047544  0.85253215
   0.66720318  0.33290389  0.68586565
   0.66613020  0.33376279  0.98080103
   0.66562367  0.33285790  0.48080122
   0.66770970  0.33380878  0.18586540
   0.33386983  0.66623724  0.01919897
   0.33279685  0.66709614  0.31413435
   0.33229033  0.66619125  0.81413454
   0.33437636  0.66714213  0.51919878
   0.30598198 -0.00001653  0.25012993
   0.69401802  0.00001653  0.74987007
  -0.00004404  0.30585563  0.24992995
   0.00004404  0.69414437  0.75007005
   0.69383115  0.69385913  0.24994031
   0.30616885  0.30614087  0.75005969
   0.97264866  0.33331681  0.58346324
   0.36068468  0.33334988  0.08320341
   0.66662264  0.63918895  0.58326327
   0.66671073  0.02747770  0.08340338
   0.36049780  0.02719246  0.58327362
   0.97283554  0.63947418  0.08339303
   0.63931529  0.66665015  0.91679661
   0.02735136  0.66668322  0.41653673
   0.33328930  0.97252232  0.91659664
   0.33337739  0.36081103  0.41673670
   0.02716448  0.36052579  0.91660700
   0.63950217  0.97280756  0.41672635
Direct configuration=     3
   0.00097125 -0.00077747  0.35278806
  -0.00097125  0.00077747  0.64721191
  -0.00188824 -0.00086072  0.14721229
   0.00188824  0.00086072  0.85278774
   0.66763793  0.33255587  0.68612140
   0.66569544  0.33411081  0.98054529
   0.66477844  0.33247262  0.48054564
   0.66855493  0.33419407  0.18612099
   0.33430459  0.66588922  0.01945471
   0.33236210  0.66744416  0.31387860
   0.33144510  0.66580596  0.81387895
   0.33522159  0.66752741  0.51945436
   0.30587206 -0.00002993  0.25023522
   0.69412794  0.00002993  0.74976478
  -0.00007973  0.30564333  0.24987319
   0.00007973  0.69435667  0.75012681
   0.69378962  0.69384028  0.24989194
   0.30621038  0.30615972  0.75010806
   0.97253875  0.33330341  0.58356853
   0.36079460  0.33336328  0.08309812
   0.66658695  0.63897664  0.58320650
   0.66674642  0.02769001  0.08346015
   0.36045628  0.02717362  0.58322525
   0.97287707  0.63949303  0.08344140
   0.63920537  0.66663675  0.91690190
   0.02746127  0.66669662  0.41643144
   0.33325361  0.97231002  0.91653987
   0.33341308  0.36102333  0.41679347
   0.02712296  0.36050694  0.91655862
   0.63954369  0.97282640  0.41677472
Direct configuration=     4
   0.00103687 -0.00079479  0.35286131
  -0.00103687  0.00079479  0.64713866
  -0.00184964 -0.00079422  0.14713867
   0.00184964  0.00079422  0.85286136
   0.66770356  0.33253856  0.68619465
   0.66562981  0.33412813  0.98047204
   0.66481704  0.33253912  0.48047202
   0.66851633  0.33412757  0.18619461
   0.33437022  0.66587190  0.01952796
   0.33229647  0.66746147  0.31380535
   0.33148370  0.66587246  0.81380533
   0.33518299  0.66746091  0.51952798
   0.30604970  0.00049568  0.25020546
   0.69395030 -0.00049568  0.74979454
   0.00020071  0.30548363  0.24989279
  -0.00020071  0.69451637  0.75010721
   0.69356011  0.69385632  0.24990235
   0.30643989  0.30614368  0.75009765
   0.97271639  0.33382903  0.58353877
   0.36061696  0.33283766  0.08312788
   0.66686740  0.63881694  0.58322610
   0.66646597  0.02784971  0.08344055
   0.36022676  0.02718966  0.58323566
   0.97310658  0.63947699  0.08343099
   0.63938302  0.66716237  0.91687214
   0.02728363  0.66617100  0.41646120
   0.33353406  0.97215031  0.91655948
   0.33313263  0.36118303  0.41677387
   0.02689344  0.36052298  0.91656904
   0.63977321  0.97281036  0.41676431
Direct configuration=     5
   0.00104436 -0.00079676  0.35286966
  -0.00104436  0.00079676  0.64713031
  -0.00184524 -0.00078664  0.14713028
   0.00184524  0.00078664  0.85286975
   0.66771104  0.33253658  0.68620300
   0.66562233  0.33413010  0.98046368
   0.66482145  0.33254670  0.48046362
   0.66851193  0.33411998  0.18620301
   0.33437770  0.66586993  0.01953632
   0.33228899  0.66746345  0.31379700
   0.33148810  0.66588005  0.81379694
   0.33517858  0.66745333  0.51953638
   0.30606996  0.00055562  0.25020206
   0.69393004 -0.00055562  0.74979794
   0.00023269  0.30546542  0.24989502
  -0.00023269  0.69453458  0.75010498
   0.69353394  0.69385815  0.24990354
   0.30646606  0.30614185  0.75009646
   0.97273665  0.33388896  0.58353538
   0.36059670  0.33277772  0.08313127
   0.66689938  0.63879873  0.58322834
   0.66643399  0.02786792  0.08343831
   0.36020059  0.02719149  0.58323685
   0.97313275  0.63947516  0.08342980
   0.63940327  0.66722231  0.91686875
   0.02726338  0.66611107  0.41646459
   0.33356604  0.97213210  0.91656171
   0.33310065  0.36120124  0.41677163
   0.02686727  0.36052481  0.91657022
   0.63979938  0.97280853  0.41676312
Direct configuration=     6
   0.00102341 -0.00080228  0.35286282
  -0.00102341  0.00080228  0.64713715
  -0.00184584 -0.00077871  0.14713767
   0.00184584  0.00077871  0.85286236
   0.66769009  0.33253106  0.68619616
   0.66564328  0.33413563  0.98047052
   0.66482084  0.33255464  0.48047101
   0.66851253  0.33411205  0.18619562
   0.33435675  0.66586440  0.01952948
   0.33230994  0.66746897  0.31380384
   0.33148750  0.66588798  0.81380433
   0.33517919  0.66744539  0.51952899
   0.30607416  0.00064352  0.25025582
   0.69392584 -0.00064352  0.74974418
   0.00028137  0.30543097  0.24986771
  -0.00028137  0.69456903  0.75013229
   0.69352597  0.69388928  0.24987690
   0.30647403  0.30611072  0.75012310
   0.97274085  0.33397687  0.58358914
   0.36059250  0.33268982  0.08307751
   0.66694805  0.63876429  0.58320103
   0.66638532  0.02790236  0.08346562
   0.36019263  0.02722261  0.58321021
   0.97314072  0.63944404  0.08345644
   0.63940747  0.66731021  0.91692251
   0.02725917  0.66602316  0.41641083
   0.33361471  0.97209766  0.91653440
   0.33305198  0.36123568  0.41679894
   0.02685930  0.36055593  0.91654358
   0.63980735  0.97277741  0.41678976
Direct configuration=     7
   0.00099182 -0.00081061  0.35285251
  -0.00099182  0.00081061  0.64714746
  -0.00184675 -0.00076674  0.14714881
   0.00184675  0.00076674  0.85285122
   0.66765851  0.33252274  0.68618585
   0.66567487  0.33414395  0.98048084
   0.66481993  0.33256660  0.48048215
   0.66851344  0.33410009  0.18618447
   0.33432516  0.66585608  0.01951916
   0.33234152  0.66747729  0.31381415
   0.33148659  0.66589994  0.81381547
   0.33518010  0.66743343  0.51951785
   0.30608049  0.00077604  0.25033687
   0.69391951 -0.00077604  0.74966313
   0.00035475  0.30537905  0.24982655
  -0.00035475  0.69462095  0.75017345
   0.69351396  0.69393619  0.24983673
   0.30648604  0.30606381  0.75016327
   0.97274718  0.33410938  0.58367018
   0.36058616  0.33255731  0.08299647
   0.66702143  0.63871236  0.58315986
   0.66631194  0.02795429  0.08350679
   0.36018061  0.02726953  0.58317005
   0.97315273  0.63939712  0.08349660
   0.63941381  0.66744272  0.91700355
   0.02725284  0.66589065  0.41632979
   0.33368809  0.97204573  0.91649323
   0.33297860  0.36128761  0.41684011
   0.02684729  0.36060285  0.91650342
   0.63981936  0.97273049  0.41682992
Direct configuration=     8
   0.00102439 -0.00077416  0.35285340
  -0.00102439  0.00077416  0.64714657
  -0.00182882 -0.00073376  0.14714840
   0.00182882  0.00073376  0.85285163
   0.66769108  0.33255918  0.68618675
   0.66564230  0.33410750  0.98047994
   0.66483787  0.33259959  0.48048175
   0.66849551  0.33406710  0.18618488
   0.33435773  0.66589253  0.01952006
   0.33230895  0.66744085  0.31381325
   0.33150452  0.66593293  0.81381506
   0.33516216  0.66740044  0.51951825
   0.30616652  0.00083302  0.25036150
   0.69383348 -0.00083302  0.74963850
   0.00038940  0.30544967  0.24981404
  -0.00038940  0.69455033  0.75018596
   0.69345835  0.69390330  0.24982496
   0.30654165  0.30609670  0.75017504
   0.97283321  0.33416637  0.58369482
   0.36050014  0.33250032  0.08297183
   0.66705609  0.63878298  0.58314735
   0.66627728  0.02788366  0.08351930
   0.36012501  0.02723663  0.58315827
   0.97320834  0.63943001  0.08350837
   0.63949983  0.66749971  0.91702819
   0.02716681  0.66583366  0.41630515
   0.33372275  0.97211636  0.91648073
   0.33294394  0.36121699  0.41685262
   0.02679168  0.36056996  0.91649165
   0.63987497  0.97276339  0.41684170
Direct configuration=     9
   0.00102924 -0.00076874  0.35285354
  -0.00102924  0.00076874  0.64714643
  -0.00182615 -0.00072885  0.14714834
   0.00182615  0.00072885  0.85285169
   0.66769593  0.33256461  0.68618688
   0.66563745  0.33410208  0.98047981
   0.66484054  0.33260450  0.48048169
   0.66849284  0.33406219  0.18618494
   0.33436258  0.66589795  0.01952019
   0.33230410  0.66743542  0.31381312
   0.33150719  0.66593784  0.81381500
   0.33515949  0.66739553  0.51951831
   0.30617933  0.00084151  0.25036517
   0.69382067 -0.00084151  0.74963483
   0.00039456  0.30546018  0.24981218
  -0.00039456  0.69453982  0.75018782
   0.69345007  0.69389840  0.24982321
   0.30654993  0.30610160  0.75017679
   0.97284601  0.33417485  0.58369848
   0.36048733  0.33249183  0.08296816
   0.66706125  0.63879350  0.58314549
   0.66627212  0.02787315  0.08352116
   0.36011673  0.02723174  0.58315652
   0.97321662  0.63943491  0.08351013
   0.63951264  0.66750820  0.91703186
   0.02715401  0.66582518  0.41630149
   0.33372791  0.97212687  0.91647887
   0.33293878  0.36120647  0.41685448
   0.02678340  0.36056506  0.91648990
   0.63988324  0.97276828  0.41684345
Direct configuration=    10
   0.00102807 -0.00077004  0.35285350
  -0.00102807  0.00077004  0.64714647
  -0.00182679 -0.00073003  0.14714836
   0.00182679  0.00073003  0.85285167
   0.66769476  0.33256330  0.68618685
   0.66563862  0.33410339  0.98047984
   0.66483989  0.33260331  0.48048170
   0.66849348  0.33406337  0.18618493
   0.33436141  0.66589664  0.01952016
   0.33230527  0.66743673  0.31381315
   0.33150655  0.66593666  0.81381501
   0.33516014  0.66739672  0.51951830
   0.30617624  0.00083946  0.25036429
   0.69382376 -0.00083946  0.74963571
   0.00039332  0.30545765  0.24981263
  -0.00039332  0.69454235  0.75018737
   0.69345206  0.69389958  0.24982363
   0.30654794  0.30610042  0.75017637
   0.97284293  0.33417281  0.58369760
   0.36049042  0.33249388  0.08296905
   0.66706001  0.63879096  0.58314594
   0.66627337  0.02787568  0.08352071
   0.36011872  0.02723292  0.58315694
   0.97321462  0.63943373  0.08350971
   0.63950956  0.66750615  0.91703098
   0.02715709  0.66582722  0.41630237
   0.33372666  0.97212434  0.91647931
   0.33294002  0.36120901  0.41685403
   0.02678540  0.36056624  0.91649032
   0.63988125  0.97276710  0.41684303
Direct configuration=    11
   0.00102846 -0.00076960  0.35285351
  -0.00102846  0.00076960  0.64714646
  -0.00182658 -0.00072963  0.14714835
   0.00182658  0.00072963  0.85285168
   0.66769515  0.33256374  0.68618686
   0.66563822  0.33410295  0.98047983
   0.66484011  0.33260371  0.48048170
   0.66849326  0.33406298  0.18618493
   0.33436181  0.66589708  0.01952017
   0.33230488  0.66743629  0.31381314
   0.33150677  0.66593705  0.81381501
   0.33515992  0.66739632  0.51951830
   0.30617728  0.00084015  0.25036458
   0.69382272 -0.00084015  0.74963542
   0.00039374  0.30545850  0.24981248
  -0.00039374  0.69454150  0.75018752
   0.69345140  0.69389919  0.24982349
   0.30654860  0.30610081  0.75017651
   0.97284396  0.33417349  0.58369790
   0.36048938  0.33249319  0.08296875
   0.66706043  0.63879181  0.58314579
   0.66627295  0.02787483  0.08352086
   0.36011805  0.02723252  0.58315680
   0.97321529  0.63943413  0.08350985
   0.63951059  0.66750684  0.91703127
   0.02715606  0.66582654  0.41630207
   0.33372708  0.97212519  0.91647916
   0.33293960  0.36120816  0.41685418
   0.02678473  0.36056584  0.91649018
   0.63988192  0.97276750  0.41684317
Direct configuration=    12
   0.00102824 -0.00076985  0.35285351
  -0.00102824  0.00076985  0.64714646
  -0.00182670 -0.00072986  0.14714836
   0.00182670  0.00072986  0.85285167
   0.66769493  0.33256349  0.68618685
   0.66563845  0.33410320  0.98047984
   0.66483999  0.33260348  0.48048170
   0.66849339  0.33406320  0.18618493
   0.33436158  0.66589683  0.01952016
   0.33230510  0.66743654  0.31381315
   0.33150664  0.66593683  0.81381501
   0.33516004  0.66739655  0.51951830
   0.30617669  0.00083976  0.25036442
   0.69382331 -0.00083976  0.74963558
   0.00039350  0.30545802  0.24981256
  -0.00039350  0.69454198  0.75018744
   0.69345178  0.69389941  0.24982357
   0.30654822  0.30610059  0.75017643
   0.97284337  0.33417310  0.58369773
   0.36048997  0.33249358  0.08296892
   0.66706019  0.63879133  0.58314588
   0.66627319  0.02787532  0.08352077
   0.36011843  0.02723275  0.58315688
   0.97321491  0.63943390  0.08350977
   0.63951000  0.66750645  0.91703110
   0.02715665  0.66582693  0.41630224
   0.33372684  0.97212470  0.91647925
   0.33293984  0.36120864  0.41685409
   0.02678511  0.36056607  0.91649026
   0.63988154  0.97276728  0.41684309
Direct configuration=    13
   0.00102835 -0.00076973  0.35285351
  -0.00102835  0.00076973  0.64714646
  -0.00182664 -0.00072975  0.14714835
   0.00182664  0.00072975  0.85285168
   0.66769504  0.33256361  0.68618685
   0.66563834  0.33410307  0.98047983
   0.66484005  0.33260360  0.48048170
   0.66849332  0.33406309  0.18618493
   0.33436169  0.66589696  0.01952017
   0.33230499  0.66743642  0.31381315
   0.33150671  0.66593694  0.81381501
   0.33515998  0.66739643  0.51951830
   0.30617698  0.00083995  0.25036450
   0.69382302 -0.00083995  0.74963550
   0.00039362  0.30545826  0.24981252
  -0.00039362  0.69454174  0.75018748
   0.69345159  0.69389930  0.24982353
   0.30654841  0.30610070  0.75017647
   0.97284367  0.33417330  0.58369781
   0.36048968  0.33249339  0.08296884
   0.66706031  0.63879157  0.58314583
   0.66627307  0.02787508  0.08352082
   0.36011824  0.02723263  0.58315684
   0.97321510  0.63943401  0.08350981
   0.63951030  0.66750664  0.91703119
   0.02715635  0.66582673  0.41630216
   0.33372696  0.97212495  0.91647921
   0.33293972  0.36120840  0.41685414
   0.02678492  0.36056596  0.91649022
   0.63988173  0.97276739  0.41684313
Direct configuration=    14
   0.00102829 -0.00076980  0.35285351
  -0.00102829  0.00076980  0.64714646
  -0.00182667 -0.00072981  0.14714835
   0.00182667  0.00072981  0.85285168
   0.66769498  0.33256354  0.68618685
   0.66563840  0.33410314  0.98047983
   0.66484001  0.33260353  0.48048170
   0.66849336  0.33406315  0.18618493
   0.33436163  0.66589689  0.01952017
   0.33230505  0.66743649  0.31381315
   0.33150667  0.66593688  0.81381501
   0.33516002  0.66739650  0.51951830
   0.30617682  0.00083984  0.25036445
   0.69382318 -0.00083984  0.74963555
   0.00039355  0.30545812  0.24981254
  -0.00039355  0.69454188  0.75018746
   0.69345169  0.69389936  0.24982355
   0.30654831  0.30610064  0.75017645
   0.97284350  0.33417319  0.58369777
   0.36048984  0.33249350  0.08296888
   0.66706024  0.63879144  0.58314586
   0.66627313  0.02787521  0.08352079
   0.36011835  0.02723270  0.58315687
   0.97321499  0.63943395  0.08350978
   0.63951013  0.66750653  0.91703114
   0.02715652  0.66582684  0.41630220
   0.33372690  0.97212481  0.91647923
   0.33293979  0.36120853  0.41685411
   0.02678503  0.36056602  0.91649024
   0.63988162  0.97276732  0.41684310
Direct configuration=    15
   0.00102832 -0.00076976  0.35285351
  -0.00102832  0.00076976  0.64714646
  -0.00182666 -0.00072978  0.14714835
   0.00182666  0.00072978  0.85285168
   0.66769501  0.33256358  0.68618685
   0.66563837  0.33410311  0.98047983
   0.66484003  0.33260356  0.48048170
   0.66849334  0.33406312  0.18618493
   0.33436166  0.66589692  0.01952017
   0.33230502  0.66743645  0.31381315
   0.33150669  0.66593691  0.81381501
   0.33516000  0.66739647  0.51951830
   0.30617690  0.00083990  0.25036448
   0.69382310 -0.00083990  0.74963552
   0.00039359  0.30545819  0.24981253
  -0.00039359  0.69454181  0.75018747
   0.69345164  0.69389933  0.24982354
   0.30654836  0.30610067  0.75017646
   0.97284359  0.33417324  0.58369779
   0.36048976  0.33249344  0.08296886
   0.66706027  0.63879150  0.58314585
   0.66627310  0.02787514  0.08352080
   0.36011830  0.02723267  0.58315685
   0.97321505  0.63943398  0.08350980
   0.63951021  0.66750659  0.91703116
   0.02715644  0.66582679  0.41630218
   0.33372693  0.97212488  0.91647922
   0.33293976  0.36120847  0.41685412
   0.02678497  0.36056599  0.91649023
   0.63988167  0.97276736  0.41684312
Direct configuration=    16
   0.00102830 -0.00076978  0.35285351
  -0.00102830  0.00076978  0.64714646
  -0.00182667 -0.00072980  0.14714835
   0.00182667  0.00072980  0.85285168
   0.66769499  0.33256356  0.68618685
   0.66563839  0.33410313  0.98047983
   0.66484002  0.33260355  0.48048170
   0.66849335  0.33406314  0.18618493
   0.33436164  0.66589690  0.01952017
   0.33230504  0.66743647  0.31381315
   0.33150668  0.66593689  0.81381501
   0.33516001  0.66739648  0.51951830
   0.30617685  0.00083987  0.25036446
   0.69382315 -0.00083987  0.74963554
   0.00039357  0.30545815  0.24981254
  -0.00039357  0.69454185  0.75018746
   0.69345167  0.69389935  0.24982355
   0.30654833  0.30610065  0.75017645
   0.97284354  0.33417321  0.58369778
   0.36048981  0.33249347  0.08296887
   0.66706025  0.63879147  0.58314585
   0.66627312  0.02787518  0.08352080
   0.36011833  0.02723268  0.58315686
   0.97321502  0.63943396  0.08350979
   0.63951016  0.66750656  0.91703115
   0.02715648  0.66582682  0.41630219
   0.33372691  0.97212484  0.91647923
   0.33293978  0.36120851  0.41685412
   0.02678500  0.36056601  0.91649023
   0.63988164  0.97276734  0.41684311
Direct configuration=    17
   0.00101880 -0.00078190  0.35285182
  -0.00101880  0.00078190  0.64714815
  -0.00183442 -0.00074716  0.14715007
   0.00183442  0.00074716  0.85284996
   0.66768549  0.33255144  0.68618516
   0.66564789  0.33411524  0.98048153
   0.66483227  0.33258619  0.48048341
   0.66850110  0.33408050  0.18618321
   0.33435214  0.66588479  0.01951847
   0.33231454  0.66744859  0.31381484
   0.33149893  0.66591953  0.81381673
   0.33516776  0.66741384  0.51951659
   0.30619159  0.00085099  0.25036519
   0.69380841 -0.00085099  0.74963481
   0.00039727  0.30546537  0.24981070
  -0.00039727  0.69453463  0.75018930
   0.69344773  0.69390175  0.24982439
   0.30655227  0.30609825  0.75017561
   0.97285828  0.33418433  0.58369850
   0.36047507  0.33248236  0.08296815
   0.66706396  0.63879869  0.58314402
   0.66626941  0.02786796  0.08352263
   0.36011438  0.02723509  0.58315770
   0.97321896  0.63943156  0.08350895
   0.63952490  0.66751767  0.91703188
   0.02714174  0.66581570  0.41630147
   0.33373062  0.97213206  0.91647739
   0.33293607  0.36120128  0.41685595
   0.02678106  0.36056841  0.91649107
   0.63988559  0.97276493  0.41684227
Direct configuration=    18
   0.00101882 -0.00078188  0.35285182
  -0.00101882  0.00078188  0.64714815
  -0.00183440 -0.00074712  0.14715007
   0.00183440  0.00074712  0.85284996
   0.66768551  0.33255147  0.68618516
   0.66564787  0.33411522  0.98048152
   0.66483228  0.33258622  0.48048341
   0.66850109  0.33408047  0.18618322
   0.33435216  0.66588481  0.01951848
   0.33231452  0.66744856  0.31381484
   0.33149894  0.66591956  0.81381673
   0.33516775  0.66741381  0.51951659
   0.30619156  0.00085096  0.25036519
   0.69380844 -0.00085096  0.74963481
   0.00039727  0.30546536  0.24981071
  -0.00039727  0.69453464  0.75018929
   0.69344773  0.69390175  0.24982438
   0.30655227  0.30609825  0.75017562
   0.97285825  0.33418431  0.58369850
   0.36047510  0.33248238  0.08296815
   0.66706395  0.63879867  0.58314402
   0.66626942  0.02786797  0.08352263
   0.36011439  0.02723508  0.58315770
   0.97321895  0.63943157  0.08350895
   0.63952487  0.66751765  0.91703188
   0.02714177  0.66581572  0.41630147
   0.33373061  0.97213205  0.91647739
   0.33293608  0.36120130  0.41685595
   0.02678107  0.36056841  0.91649107
   0.63988558  0.97276494  0.41684227
Direct configuration=    19
   0.00102239 -0.00078119  0.35285125
  -0.00102239  0.00078119  0.64714872
  -0.00183728 -0.00074915  0.14715068
   0.00183728  0.00074915  0.85284935
   0.66768907  0.33255215  0.68618460
   0.66564430  0.33411454  0.98048209
   0.66482940  0.33258419  0.48048403
   0.66850397  0.33408249  0.18618260
   0.33435573  0.66588549  0.01951791
   0.33231096  0.66744788  0.31381540
   0.33149606  0.66591754  0.81381734
   0.33517063  0.66741584  0.51951597
   0.30619454  0.00085549  0.25036573
   0.69380546 -0.00085549  0.74963427
   0.00040234  0.30547141  0.24981059
  -0.00040234  0.69452859  0.75018941
   0.69345218  0.69390620  0.24982420
   0.30654782  0.30609380  0.75017580
   0.97286123  0.33418883  0.58369904
   0.36047211  0.33247785  0.08296761
   0.66706902  0.63880473  0.58314390
   0.66626435  0.02786192  0.08352275
   0.36011884  0.02723954  0.58315751
   0.97321450  0.63942711  0.08350914
   0.63952786  0.66752218  0.91703241
   0.02713879  0.66581120  0.41630093
   0.33373568  0.97213810  0.91647727
   0.33293101  0.36119525  0.41685607
   0.02678552  0.36057286  0.91649089
   0.63988113  0.97276048  0.41684246
Direct configuration=    20
   0.00102277 -0.00078112  0.35285119
  -0.00102277  0.00078112  0.64714878
  -0.00183759 -0.00074937  0.14715075
   0.00183759  0.00074937  0.85284928
   0.66768945  0.33255222  0.68618454
   0.66564392  0.33411446  0.98048215
   0.66482910  0.33258398  0.48048409
   0.66850428  0.33408271  0.18618253
   0.33435611  0.66588557  0.01951785
   0.33231058  0.66744781  0.31381546
   0.33149575  0.66591732  0.81381741
   0.33517093  0.66741605  0.51951591
   0.30619486  0.00085597  0.25036578
   0.69380514 -0.00085597  0.74963422
   0.00040288  0.30547206  0.24981057
  -0.00040288  0.69452794  0.75018943
   0.69345266  0.69390668  0.24982418
   0.30654734  0.30609332  0.75017582
   0.97286155  0.33418932  0.58369910
   0.36047180  0.33247737  0.08296755
   0.66706956  0.63880537  0.58314389
   0.66626381  0.02786128  0.08352276
   0.36011932  0.02724001  0.58315749
   0.97321403  0.63942663  0.08350915
   0.63952818  0.66752266  0.91703247
   0.02713847  0.66581071  0.41630087
   0.33373622  0.97213874  0.91647726
   0.33293047  0.36119460  0.41685608
   0.02678599  0.36057334  0.91649087
   0.63988066  0.97276001  0.41684248
Direct configuration=    21
   0.00102247 -0.00078118  0.35285124
  -0.00102247  0.00078118  0.64714873
  -0.00183736 -0.00074920  0.14715070
   0.00183736  0.00074920  0.85284933
   0.66768916  0.33255217  0.68618458
   0.66564421  0.33411452  0.98048210
   0.66482933  0.33258414  0.48048404
   0.66850404  0.33408254  0.18618258
   0.33435582  0.66588551  0.01951790
   0.33231087  0.66744786  0.31381542
   0.33149599  0.66591749  0.81381736
   0.33517070  0.66741589  0.51951596
   0.30619462  0.00085560  0.25036574
   0.69380538 -0.00085560  0.74963426
   0.00040246  0.30547156  0.24981058
  -0.00040246  0.69452844  0.75018942
   0.69345229  0.69390631  0.24982420
   0.30654771  0.30609369  0.75017580
   0.97286130  0.33418895  0.58369905
   0.36047204  0.33247774  0.08296760
   0.66706915  0.63880487  0.58314390
   0.66626423  0.02786177  0.08352275
   0.36011895  0.02723965  0.58315751
   0.97321439  0.63942700  0.08350914
   0.63952793  0.66752229  0.91703243
   0.02713872  0.66581108  0.41630092
   0.33373580  0.97213825  0.91647727
   0.33293088  0.36119510  0.41685607
   0.02678563  0.36057297  0.91649088
   0.63988102  0.97276037  0.41684246
Direct configuration=    22
   0.00102262 -0.00078115  0.35285122
  -0.00102262  0.00078115  0.64714875
  -0.00183747 -0.00074928  0.14715073
   0.00183747  0.00074928  0.85284930
   0.66768931  0.33255219  0.68618456
   0.66564407  0.33411449  0.98048213
   0.66482921  0.33258406  0.48048407
   0.66850416  0.33408263  0.18618256
   0.33435596  0.66588554  0.01951787
   0.33231072  0.66744784  0.31381544
   0.33149587  0.66591740  0.81381738
   0.33517082  0.66741597  0.51951593
   0.30619474  0.00085579  0.25036576
   0.69380526 -0.00085579  0.74963424
   0.00040267  0.30547181  0.24981058
  -0.00040267  0.69452819  0.75018942
   0.69345248  0.69390650  0.24982419
   0.30654752  0.30609350  0.75017581
   0.97286143  0.33418913  0.58369907
   0.36047192  0.33247755  0.08296757
   0.66706935  0.63880512  0.58314389
   0.66626402  0.02786153  0.08352276
   0.36011913  0.02723983  0.58315750
   0.97321421  0.63942682  0.08350915
   0.63952805  0.66752248  0.91703245
   0.02713859  0.66581090  0.41630090
   0.33373601  0.97213850  0.91647726
   0.33293068  0.36119485  0.41685608
   0.02678581  0.36057315  0.91649088
   0.63988084  0.97276019  0.41684247
Direct configuration=    23
   0.00102256 -0.00078116  0.35285123
  -0.00102256  0.00078116  0.64714874
  -0.00183743 -0.00074925  0.14715072
   0.00183743  0.00074925  0.85284931
   0.66768925  0.33255218  0.68618457
   0.66564413  0.33411450  0.98048212
   0.66482926  0.33258409  0.48048406
   0.66850411  0.33408259  0.18618257
   0.33435590  0.66588553  0.01951788
   0.33231078  0.66744785  0.31381543
   0.33149592  0.66591744  0.81381737
   0.33517077  0.66741594  0.51951594
   0.30619469  0.00085572  0.25036575
   0.69380531 -0.00085572  0.74963425
   0.00040259  0.30547171  0.24981058
  -0.00040259  0.69452829  0.75018942
   0.69345240  0.69390643  0.24982419
   0.30654760  0.30609357  0.75017581
   0.97286138  0.33418906  0.58369907
   0.36047197  0.33247763  0.08296758
   0.66706927  0.63880502  0.58314389
   0.66626410  0.02786162  0.08352276
   0.36011906  0.02723976  0.58315750
   0.97321428  0.63942689  0.08350914
   0.63952801  0.66752240  0.91703244
   0.02713864  0.66581097  0.41630090
   0.33373593  0.97213840  0.91647727
   0.33293076  0.36119495  0.41685608
   0.02678574  0.36057308  0.91649088
   0.63988091  0.97276026  0.41684247
Direct configuration=    24
   0.00102259 -0.00078116  0.35285122
  -0.00102259  0.00078116  0.64714875
  -0.00183745 -0.00074927  0.14715072
   0.00183745  0.00074927  0.85284931
   0.66768927  0.33255219  0.68618456
   0.66564410  0.33411450  0.98048212
   0.66482924  0.33258408  0.48048406
   0.66850413  0.33408261  0.18618256
   0.33435593  0.66588553  0.01951788
   0.33231076  0.66744784  0.31381544
   0.33149590  0.66591742  0.81381738
   0.33517079  0.66741595  0.51951594
   0.30619471  0.00085575  0.25036576
   0.69380529 -0.00085575  0.74963424
   0.00040262  0.30547175  0.24981058
  -0.00040262  0.69452825  0.75018942
   0.69345244  0.69390646  0.24982419
   0.30654756  0.30609354  0.75017581
   0.97286140  0.33418909  0.58369907
   0.36047194  0.33247760  0.08296758
   0.66706931  0.63880507  0.58314389
   0.66626406  0.02786158  0.08352276
   0.36011909  0.02723979  0.58315750
   0.97321425  0.63942686  0.08350915
   0.63952803  0.66752243  0.91703244
   0.02713862  0.66581094  0.41630090
   0.33373597  0.97213844  0.91647727
   0.33293072  0.36119490  0.41685608
   0.02678577  0.36057311  0.91649088
   0.63988088  0.97276023  0.41684247
Direct configuration=    25
   0.00102264 -0.00078151  0.35285109
  -0.00102264  0.00078151  0.64714888
  -0.00183781 -0.00074849  0.14715078
   0.00183781  0.00074849  0.85284925
   0.66768933  0.33255183  0.68618443
   0.66564405  0.33411486  0.98048225
   0.66482888  0.33258485  0.48048412
   0.66850449  0.33408183  0.18618250
   0.33435598  0.66588517  0.01951775
   0.33231070  0.66744820  0.31381557
   0.33149554  0.66591820  0.81381744
   0.33517115  0.66741518  0.51951588
   0.30619370  0.00085630  0.25036546
   0.69380630 -0.00085630  0.74963454
   0.00040262  0.30547127  0.24981026
  -0.00040262  0.69452873  0.75018974
   0.69345612  0.69391017  0.24982465
   0.30654388  0.30608983  0.75017535
   0.97286039  0.33418964  0.58369877
   0.36047295  0.33247704  0.08296788
   0.66706931  0.63880458  0.58314358
   0.66626406  0.02786207  0.08352307
   0.36012278  0.02724351  0.58315796
   0.97321057  0.63942314  0.08350869
   0.63952702  0.66752299  0.91703215
   0.02713963  0.66581039  0.41630120
   0.33373597  0.97213795  0.91647695
   0.33293072  0.36119539  0.41685639
   0.02678945  0.36057683  0.91649134
   0.63987719  0.97275651  0.41684201
Direct configuration=    26
   0.00102264 -0.00078153  0.35285108
  -0.00102264  0.00078153  0.64714889
  -0.00183782 -0.00074845  0.14715078
   0.00183782  0.00074845  0.85284925
   0.66768933  0.33255181  0.68618443
   0.66564404  0.33411488  0.98048226
   0.66482886  0.33258489  0.48048413
   0.66850451  0.33408179  0.18618250
   0.33435599  0.66588515  0.01951774
   0.33231070  0.66744822  0.31381557
   0.33149552  0.66591824  0.81381744
   0.33517117  0.66741514  0.51951587
   0.30619365  0.00085633  0.25036545
   0.69380635 -0.00085633  0.74963455
   0.00040262  0.30547124  0.24981025