       N       E                     dE             d eps       ncg     rms          rms(c)
DAV:   1     0.926367755703E+03    0.92637E+03   -0.54028E+04 49056   0.175E+03
DAV:   2     0.510345406886E+00   -0.92586E+03   -0.89557E+03 49056   0.398E+02
DAV:   3    -0.921817411097E+02   -0.92692E+02   -0.87990E+02 51364   0.148E+02
DAV:   4    -0.956991737578E+02   -0.35174E+01   -0.34551E+01 57572   0.280E+01
DAV:   5    -0.957920232401E+02   -0.92849E-01   -0.92608E-01 59232   0.393E+00    0.341E+01
RMM:   6    -0.103782630485E+03   -0.79906E+01   -0.42848E+02 49133   0.123E+02    0.253E+01
RMM:   7    -0.790344296216E+02    0.24748E+02   -0.92202E+01 49056   0.616E+01    0.287E+00
RMM:   8    -0.790774110577E+02   -0.42981E-01   -0.93855E+00 49056   0.159E+01    0.458E+00
RMM:   9    -0.786555863407E+02    0.42182E+00   -0.97264E-01 49057   0.624E+00    0.580E-01
RMM:  10    -0.786495650423E+02    0.60213E-02   -0.30647E-02 49061   0.770E-01    0.327E-01
RMM:  11    -0.786467599389E+02    0.28051E-02   -0.19357E-02 49056   0.583E-01    0.689E-02
RMM:  12    -0.786467400160E+02    0.19923E-04   -0.54067E-04 49065   0.924E-02    0.507E-02
RMM:  13    -0.786467170410E+02    0.22975E-04   -0.18955E-04 49056   0.712E-02    0.258E-02
RMM:  14    -0.786467001165E+02    0.16925E-04   -0.34686E-05 33438   0.363E-02    0.470E-03
RMM:  15    -0.786467003598E+02   -0.24331E-06   -0.53503E-06 27595   0.128E-02
   1 F= -.78646700E+02 E0= -.78642126E+02  d E =-.786467E+02
       N       E                     dE             d eps       ncg     rms          rms(c)
DAV:   1    -0.786469788731E+02   -0.27876E-03   -0.25073E-02 52636   0.578E-01    0.148E-02
RMM:   2    -0.786469841673E+02   -0.52941E-05   -0.11420E-04 48014   0.621E-02    0.144E-02
RMM:   3    -0.786469796501E+02    0.45171E-05   -0.20710E-05 26461   0.244E-02    0.346E-03
RMM:   4    -0.786469786979E+02    0.95219E-06   -0.34186E-06 25786   0.120E-02
   2 F= -.78646979E+02 E0= -.78642406E+02  d E =-.278338E-03
       N       E                     dE             d eps       ncg     rms          rms(c)
DAV:   1    -0.786475001318E+02   -0.52048E-03   -0.22540E-01 50648   0.173E+00    0.449E-02
RMM:   2    -0.786474920670E+02    0.80648E-05   -0.79007E-04 49056   0.170E-01    0.447E-03
RMM:   3    -0.786474940180E+02   -0.19510E-05   -0.27488E-05 31566   0.260E-02    0.258E-03
RMM:   4    -0.786474945988E+02   -0.58084E-06   -0.49075E-06 26571   0.130E-02
   3 F= -.78647495E+02 E0= -.78642926E+02  d E =-.794239E-03
       N       E                     dE             d eps       ncg     rms          rms(c)
DAV:   1    -0.786470659301E+02    0.42809E-03   -0.90188E-01 49368   0.346E+00    0.896E-02
RMM:   2    -0.786470384906E+02    0.27440E-04   -0.31522E-03 49056   0.345E-01    0.530E-03
RMM:   3    -0.786470493240E+02   -0.10833E-04   -0.12077E-04 46562   0.484E-02    0.529E-03
RMM:   4    -0.786470493497E+02   -0.25686E-07   -0.10702E-05 28682   0.158E-02
   4 F= -.78647049E+02 E0= -.78642484E+02  d E =-.348990E-03
       N       E                     dE             d eps       ncg     rms          rms(c)
DAV:   1    -0.786475799357E+02   -0.53061E-03   -0.48930E-01 49256   0.255E+00    0.651E-02
RMM:   2    -0.786475622372E+02    0.17698E-04   -0.16412E-03 49056   0.247E-01    0.269E-03
RMM:   3    -0.786475669283E+02   -0.46911E-05   -0.54961E-05 37612   0.341E-02    0.233E-03
RMM:   4    -0.786475674016E+02   -0.47327E-06   -0.50810E-06 27113   0.119E-02
   5 F= -.78647567E+02 E0= -.78643000E+02  d E =-.867042E-03
       N       E                     dE             d eps       ncg     rms          rms(c)
DAV:   1    -0.786476843264E+02   -0.11740E-03   -0.13989E-02 50392   0.439E-01    0.108E-02
RMM:   2    -0.786476899940E+02   -0.56676E-05   -0.66297E-05 44211   0.504E-02    0.120E-02
RMM:   3    -0.786476877995E+02    0.21945E-05   -0.50104E-05 40760   0.385E-02    0.124E-02
RMM:   4    -0.786476842581E+02    0.35414E-05   -0.14910E-05 25150   0.261E-02
   6 F= -.78647684E+02 E0= -.78643119E+02  d E =-.116856E-03
       N       E                     dE             d eps       ncg     rms          rms(c)
DAV:   1    -0.786478072396E+02   -0.11944E-03   -0.78929E-02 49248   0.104E+00    0.257E-02
RMM:   2    -0.786478071393E+02    0.10033E-06   -0.30325E-04 49056   0.107E-01    0.428E-03
RMM:   3    -0.786478070840E+02    0.55285E-07   -0.13499E-05 27871   0.190E-02    0.235E-03
RMM:   4    -0.786478073931E+02   -0.30907E-06   -0.32657E-06 26164   0.104E-02
   7 F= -.78647807E+02 E0= -.78643247E+02  d E =-.239991E-03
       N       E                     dE             d eps       ncg     rms          rms(c)
DAV:   1    -0.786478710396E+02   -0.63956E-04   -0.39143E-02 49852   0.725E-01    0.170E-02
RMM:   2    -0.786478800850E+02   -0.90454E-05   -0.11709E-04 49038   0.677E-02    0.212E-02
RMM:   3    -0.786478742304E+02    0.58546E-05   -0.14103E-05 25886   0.206E-02    0.178E-02
RMM:   4    -0.786478709463E+02    0.32841E-05   -0.56110E-05 39384   0.442E-02
   8 F= -.78647871E+02 E0= -.78643306E+02  d E =-.635532E-04
       N       E                     dE             d eps       ncg     rms          rms(c)
DAV:   1    -0.786478900765E+02   -0.15846E-04   -0.24431E-02 49524   0.573E-01    0.165E-02
RMM:   2    -0.786478903350E+02   -0.25852E-06   -0.57103E-05 42744   0.504E-02    0.131E-02
RMM:   3    -0.786478869503E+02    0.33848E-05   -0.10034E-05 25492   0.187E-02    0.427E-03
RMM:   4    -0.786478866006E+02    0.34961E-06   -0.18381E-06 25148   0.709E-03
   9 F= -.78647887E+02 E0= -.78643318E+02  d E =-.792076E-04
       N       E                     dE             d eps       ncg     rms          rms(c)
DAV:   1    -0.786478865316E+02    0.41861E-06   -0.31525E-04 52948   0.664E-02    0.214E-03
RMM:   2    -0.786478864922E+02    0.39457E-07   -0.99184E-07 24761   0.624E-03    0.106E-03
RMM:   3    -0.786478863670E+02    0.12522E-06   -0.69677E-08  9449   0.272E-03    0.755E-04
RMM:   4    -0.786478864130E+02   -0.46013E-07   -0.90289E-08  9557   0.274E-03
  10 F= -.78647886E+02 E0= -.78643318E+02  d E =-.790199E-04
       N       E                     dE             d eps       ncg     rms          rms(c)
DAV:   1    -0.786478959095E+02   -0.95425E-05   -0.58930E-03 49376   0.282E-01    0.673E-03
RMM:   2    -0.786478965545E+02   -0.64500E-06   -0.13008E-05 24729   0.253E-02    0.855E-03
RMM:   3    -0.786478993364E+02   -0.27819E-05   -0.28057E-05 28059   0.339E-02    0.126E-02
RMM:   4    -0.786478952295E+02    0.41068E-05   -0.11190E-05 24593   0.237E-02
  11 F= -.78647895E+02 E0= -.78643326E+02  d E =-.881655E-05
       N       E                     dE             d eps       ncg     rms          rms(c)
DAV:   1    -0.786478989004E+02    0.43594E-06   -0.60226E-03 49260   0.285E-01    0.677E-03
RMM:   2    -0.786478981243E+02    0.77610E-06   -0.97553E-06 25032   0.226E-02    0.682E-04
RMM:   3    -0.786478983093E+02   -0.18497E-06   -0.10829E-06 24634   0.572E-03    0.579E-04
RMM:   4    -0.786478983395E+02   -0.30172E-07   -0.14599E-07 14802   0.299E-03
  12 F= -.78647898E+02 E0= -.78643328E+02  d E =-.119265E-04
       N       E                     dE             d eps       ncg     rms          rms(c)
DAV:   1    -0.786478998375E+02   -0.15282E-05   -0.70358E-04 50288   0.984E-02    0.242E-03
RMM:   2    -0.786478998101E+02    0.27316E-07   -0.21348E-06 24703   0.984E-03    0.138E-03
RMM:   3    -0.786478998233E+02   -0.13170E-07   -0.60265E-07 24557   0.428E-03    0.149E-03
RMM:   4    -0.786478998426E+02   -0.19279E-07   -0.45426E-07 23536   0.470E-03
  13 F= -.78647900E+02 E0= -.78643329E+02  d E =-.150313E-05
