AlCu                                    
           1
    12.240971    0.000043    0.008568
     0.000000    4.104732    0.020524
    -4.013449    0.028424    5.684858
   Al   Cu
  10  10
Direct configuration=     1
   0.50000000  0.00000000  0.50000000
   0.15587366  0.00000000  0.46137374
   0.84412632  0.00000000  0.53862623
   0.87805559  0.50000000  0.99541334
   0.12194440  0.50000000  0.00458663
   0.00000000  0.50000000  0.50000000
   0.65587368  0.50000000  0.46137374
   0.34412635  0.50000000  0.53862623
   0.37805559  0.00000000  0.99541334
   0.62194441  0.00000000  0.00458663
   0.00000000  0.00000000  0.00000000
   0.25805145  0.00000000  0.24172886
   0.74194852  0.00000000  0.75827112
   0.10866387  0.00000000  0.77167894
   0.89133614  0.00000000  0.22832103
   0.50000000  0.50000000  0.00000000
   0.75805148  0.50000000  0.24172886
   0.24194855  0.50000000  0.75827112
   0.60866386  0.50000000  0.77167894
   0.39133614  0.50000000  0.22832103
Direct configuration=     2
   0.50000000 -0.00000000  0.50000000
   0.15584819  0.00018033  0.46129308
   0.84415180 -0.00018033  0.53870689
   0.87809995  0.49998589  0.99541303
   0.12190005  0.50001411  0.00458695
   0.00000000  0.50000000  0.50000000
   0.65584820  0.50018033  0.46129308
   0.34415183  0.49981967  0.53870689
   0.37809995 -0.00001411  0.99541303
   0.62190005  0.00001411  0.00458695
   0.00000000 -0.00000000  0.00000000
   0.25805602 -0.00005924  0.24188324
   0.74194395  0.00005924  0.75811675
   0.10866052 -0.00000074  0.77164986
   0.89133950  0.00000074  0.22835011
   0.50000000  0.50000000  0.00000000
   0.75805605  0.49994076  0.24188324
   0.24194398  0.50005924  0.75811675
   0.60866050  0.49999926  0.77164986
   0.39133950  0.50000074  0.22835011
Direct configuration=     3
   0.50000000 -0.00000000  0.50000000
   0.15577176  0.00072133  0.46105111
   0.84422822 -0.00072133  0.53894886
   0.87823301  0.49994354  0.99541208
   0.12176699  0.50005646  0.00458790
   0.00000000  0.50000000  0.50000000
   0.65577178  0.50072133  0.46105111
   0.34422825  0.49927867  0.53894886
   0.37823301 -0.00005646  0.99541208
   0.62176699  0.00005646  0.00458790
   0.00000000 -0.00000000  0.00000000
   0.25806972 -0.00023697  0.24234635
   0.74193025  0.00023697  0.75765364
   0.10865045 -0.00000295  0.77156263
   0.89134956  0.00000295  0.22843734
   0.50000000  0.50000000  0.00000000
   0.75806975  0.49976303  0.24234635
   0.24193028  0.50023697  0.75765364
   0.60865044  0.49999705  0.77156263
   0.39134956  0.50000295  0.22843734
Direct configuration=     4
   0.50000000 -0.00000000  0.50000000
   0.15561892  0.00180333  0.46056716
   0.84438107 -0.00180333  0.53943281
   0.87849913  0.49985885  0.99541017
   0.12150086  0.50014115  0.00458980
   0.00000000  0.50000000  0.50000000
   0.65561893  0.50180333  0.46056716
   0.34438110  0.49819667  0.53943281
   0.37849913 -0.00014115  0.99541017
   0.62150087  0.00014115  0.00458980
   0.00000000 -0.00000000  0.00000000
   0.25809712 -0.00059243  0.24327258
   0.74190285  0.00059243  0.75672741
   0.10863033 -0.00000738  0.77138818
   0.89136969  0.00000738  0.22861179
   0.50000000  0.50000000  0.00000000
   0.75809715  0.49940757  0.24327258
   0.24190288  0.50059243  0.75672741
   0.60863031  0.49999262  0.77138818
   0.39136969  0.50000738  0.22861179
Direct configuration=     5
   0.50000000 -0.00000000  0.50000000
   0.15573153  0.00100616  0.46092371
   0.84426846 -0.00100616  0.53907626
   0.87830306  0.49992125  0.99541157
   0.12169693  0.50007875  0.00458840
   0.00000000  0.50000000  0.50000000
   0.65573154  0.50100616  0.46092371
   0.34426849  0.49899384  0.53907626
   0.37830306 -0.00007875  0.99541157
   0.62169694  0.00007875  0.00458840
   0.00000000 -0.00000000  0.00000000
   0.25807693 -0.00033054  0.24259018
   0.74192304  0.00033054  0.75740981
   0.10864516 -0.00000412  0.77151671
   0.89135486  0.00000412  0.22848326
   0.50000000  0.50000000  0.00000000
   0.75807696  0.49966946  0.24259018
   0.24192307  0.50033054  0.75740981
   0.60864514  0.49999588  0.77151671
   0.39135486  0.50000412  0.22848326
Direct configuration=     6
   0.50000000 -0.00000000  0.50000000
   0.15565384  0.00121490  0.46091024
   0.84434614 -0.00121490  0.53908973
   0.87829101  0.49997129  0.99538842
   0.12170899  0.50002871  0.00461156
   0.00000000  0.50000000  0.50000000
   0.65565386  0.50121490  0.46091024
   0.34434617  0.49878510  0.53908973
   0.37829101 -0.00002871  0.99538842
   0.62170899  0.00002871  0.00461156
   0.00000000 -0.00000000  0.00000000
   0.25809036 -0.00043315  0.24263837
   0.74190961  0.00043315  0.75736161
   0.10870773  0.00000826  0.77156703
   0.89129229 -0.00000826  0.22843294
   0.50000000  0.50000000  0.00000000
   0.75809039  0.49956685  0.24263837
   0.24190964  0.50043315  0.75736161
   0.60870771  0.50000826  0.77156703
   0.39129229  0.49999174  0.22843294
Direct configuration=     7
   0.50000000 -0.00000000  0.50000000
   0.15546938  0.00171057  0.46087825
   0.84453060 -0.00171057  0.53912172
   0.87826238  0.50009010  0.99533342
   0.12173761  0.49990990  0.00466656
   0.00000000  0.50000000  0.50000000
   0.65546940  0.50171057  0.46087825
   0.34453063  0.49828943  0.53912172
   0.37826238  0.00009010  0.99533342
   0.62173762 -0.00009010  0.00466656
   0.00000000 -0.00000000  0.00000000
   0.25812224 -0.00067681  0.24275282
   0.74187773  0.00067681  0.75724716
   0.10885631  0.00003764  0.77168652
   0.89114370 -0.00003764  0.22831345
   0.50000000  0.50000000  0.00000000
   0.75812227  0.49932319  0.24275282
   0.24187776  0.50067681  0.75724716
   0.60885630  0.50003764  0.77168652
   0.39114370  0.49996236  0.22831345
Direct configuration=     8
   0.50000000 -0.00000000  0.50000000
   0.15543736  0.00182564  0.46079477
   0.84456262 -0.00182564  0.53920521
   0.87823516  0.50012985  0.99530245
   0.12176483  0.49987015  0.00469753
   0.00000000  0.50000000  0.50000000
   0.65543738  0.50182564  0.46079477
   0.34456265  0.49817436  0.53920521
   0.37823516  0.00012985  0.99530245
   0.62176484 -0.00012985  0.00469753
   0.00000000 -0.00000000  0.00000000
   0.25809527 -0.00082709  0.24275863
   0.74190470  0.00082709  0.75724136
   0.10895106  0.00003263  0.77188089
   0.89104895 -0.00003263  0.22811908
   0.50000000  0.50000000  0.00000000
   0.75809530  0.49917291  0.24275863
   0.24190473  0.50082709  0.75724136
   0.60895105  0.50003263  0.77188089
   0.39104895  0.49996737  0.22811908
Direct configuration=     9
   0.50000000 -0.00000000  0.50000000
   0.15541208  0.00191651  0.46072884
   0.84458791 -0.00191651  0.53927113
   0.87821366  0.50016123  0.99527799
   0.12178633  0.49983877  0.00472199
   0.00000000  0.50000000  0.50000000
   0.65541209  0.50191651  0.46072884
   0.34458794  0.49808349  0.53927113
   0.37821366  0.00016123  0.99527799
   0.62178634 -0.00016123  0.00472199
   0.00000000 -0.00000000  0.00000000
   0.25807398 -0.00094576  0.24276321
   0.74192599  0.00094576  0.75723678
   0.10902588  0.00002868  0.77203437
   0.89097413 -0.00002868  0.22796560
   0.50000000  0.50000000  0.00000000
   0.75807401  0.49905424  0.24276321
   0.24192602  0.50094576  0.75723678
   0.60902587  0.50002868  0.77203437
   0.39097413  0.49997132  0.22796560
Direct configuration=    10
   0.50000000 -0.00000000  0.50000000
   0.15540922  0.00192678  0.46072139
   0.84459076 -0.00192678  0.53927858
   0.87821123  0.50016478  0.99527522
   0.12178876  0.49983522  0.00472475
   0.00000000  0.50000000  0.50000000
   0.65540924  0.50192678  0.46072139
   0.34459079  0.49807322  0.53927858
   0.37821123  0.00016478  0.99527522
   0.62178877 -0.00016478  0.00472475
   0.00000000 -0.00000000  0.00000000
   0.25807157 -0.00095918  0.24276373
   0.74192840  0.00095918  0.75723626
   0.10903434  0.00002823  0.77205172
   0.89096567 -0.00002823  0.22794825
   0.50000000  0.50000000  0.00000000
   0.75807160  0.49904082  0.24276373
   0.24192843  0.50095918  0.75723626
   0.60903433  0.50002823  0.77205172
   0.39096567  0.49997177  0.22794825
Direct configuration=    11
   0.50000000 -0.00000000  0.50000000
   0.15539853  0.00189294  0.46071679
   0.84460145 -0.00189294  0.53928318
   0.87821929  0.50019068  0.99526270
   0.12178070  0.49980932  0.00473728
   0.00000000  0.50000000  0.50000000
   0.65539855  0.50189294  0.46071679
   0.34460148  0.49810706  0.53928318
   0.37821929  0.00019068  0.99526270
   0.62178071 -0.00019068  0.00473728
   0.00000000 -0.00000000  0.00000000
   0.25809973 -0.00100704  0.24281070
   0.74190024  0.00100704  0.75718929
   0.10907068  0.00004123  0.77210633
   0.89092933 -0.00004123  0.22789364
   0.50000000  0.50000000  0.00000000
   0.75809976  0.49899296  0.24281070
   0.24190027  0.50100704  0.75718929
   0.60907067  0.50004123  0.77210633
   0.39092933  0.49995877  0.22789364
Direct configuration=    12
   0.50000000 -0.00000000  0.50000000
   0.15538773  0.00185874  0.46071214
   0.84461225 -0.00185874  0.53928783
   0.87822745  0.50021686  0.99525004
   0.12177255  0.49978314  0.00474994
   0.00000000  0.50000000  0.50000000
   0.65538775  0.50185874  0.46071214
   0.34461228  0.49814126  0.53928783
   0.37822745  0.00021686  0.99525004
   0.62177255 -0.00021686  0.00474994
   0.00000000 -0.00000000  0.00000000
   0.25812818 -0.00105542  0.24285818
   0.74187179  0.00105542  0.75714181
   0.10910741  0.00005436  0.77216152
   0.89089261 -0.00005436  0.22783845
   0.50000000  0.50000000  0.00000000
   0.75812821  0.49894458  0.24285818
   0.24187182  0.50105542  0.75714181
   0.60910739  0.50005436  0.77216152
   0.39089261  0.49994564  0.22783845
Direct configuration=    13
   0.50000000 -0.00000000  0.50000000
   0.15537865  0.00183493  0.46070441
   0.84462134 -0.00183493  0.53929556
   0.87823360  0.50021215  0.99523643
   0.12176640  0.49978785  0.00476354
   0.00000000  0.50000000  0.50000000
   0.65537866  0.50183493  0.46070441
   0.34462137  0.49816507  0.53929556
   0.37823360  0.00021215  0.99523643
   0.62176640 -0.00021215  0.00476354
   0.00000000 -0.00000000  0.00000000
   0.25812087 -0.00104046  0.24286653
   0.74187910  0.00104046  0.75713345
   0.10911587  0.00006243  0.77217896
   0.89088414 -0.00006243  0.22782101
   0.50000000  0.50000000  0.00000000
   0.75812090  0.49895954  0.24286653
   0.24187913  0.50104046  0.75713345
   0.60911586  0.50006243  0.77217896
   0.39088414  0.49993757  0.22782101
