       N       E                     dE             d eps       ncg     rms          rms(c)
DAV:   1     0.343206862270E+02    0.34321E+02   -0.38804E+03 15984   0.660E+02
DAV:   2    -0.125079148986E+02   -0.46829E+02   -0.44302E+02 20152   0.104E+02
DAV:   3    -0.152688637355E+02   -0.27609E+01   -0.26512E+01 21616   0.275E+01
DAV:   4    -0.153147626792E+02   -0.45899E-01   -0.45690E-01 19352   0.349E+00
DAV:   5    -0.153155668673E+02   -0.80419E-03   -0.80373E-03 21536   0.407E-01    0.143E+00
RMM:   6    -0.152822371431E+02    0.33330E-01   -0.92833E-03 15984   0.718E-01    0.893E-01
RMM:   7    -0.152612841964E+02    0.20953E-01   -0.28522E-02 15984   0.126E+00    0.613E-02
RMM:   8    -0.152615027543E+02   -0.21856E-03   -0.73468E-04 16152   0.217E-01    0.158E-02
RMM:   9    -0.152615163103E+02   -0.13556E-04   -0.40235E-05 16521   0.420E-02    0.563E-03
RMM:  10    -0.152615288925E+02   -0.12582E-04   -0.86640E-06 14819   0.182E-02    0.139E-03
RMM:  11    -0.152615294749E+02   -0.58241E-06   -0.24146E-07  9686   0.330E-03
   1 F= -.15261529E+02 E0= -.15259470E+02  d E =-.152615E+02
       N       E                     dE             d eps       ncg     rms          rms(c)
DAV:   1    -0.152618150246E+02   -0.28613E-03   -0.10193E-03 19432   0.182E-01    0.437E-03
RMM:   2    -0.152618173701E+02   -0.23455E-05   -0.37488E-05 15694   0.346E-02    0.184E-03
RMM:   3    -0.152618182737E+02   -0.90359E-06   -0.14930E-06  9999   0.609E-03    0.804E-04
RMM:   4    -0.152618186339E+02   -0.36026E-06   -0.21011E-07  6867   0.278E-03
   2 F= -.15261819E+02 E0= -.15259770E+02  d E =-.289159E-03
       N       E                     dE             d eps       ncg     rms          rms(c)
DAV:   1    -0.152626234488E+02   -0.80518E-03   -0.91746E-03 17064   0.546E-01    0.130E-02
RMM:   2    -0.152626516143E+02   -0.28166E-04   -0.35770E-04 16030   0.107E-01    0.999E-04
RMM:   3    -0.152626530227E+02   -0.14084E-05   -0.14820E-05 14167   0.167E-02    0.574E-04
RMM:   4    -0.152626528741E+02    0.14854E-06   -0.42380E-07  9239   0.403E-03
   3 F= -.15262653E+02 E0= -.15260637E+02  d E =-.112340E-02
       N       E                     dE             d eps       ncg     rms          rms(c)
DAV:   1    -0.152640506221E+02   -0.13976E-02   -0.36609E-02 16600   0.109E+00    0.266E-02
RMM:   2    -0.152641643836E+02   -0.11376E-03   -0.13830E-03 16026   0.212E-01    0.674E-03
RMM:   3    -0.152641699971E+02   -0.56135E-05   -0.59923E-05 16577   0.334E-02    0.347E-03
RMM:   4    -0.152641694573E+02    0.53979E-06   -0.27413E-06 11457   0.836E-03
   4 F= -.15264169E+02 E0= -.15262215E+02  d E =-.263998E-02
       N       E                     dE             d eps       ncg     rms          rms(c)
DAV:   1    -0.152660048234E+02   -0.18348E-02   -0.14709E-01 16572   0.219E+00    0.522E-02
RMM:   2    -0.152664634768E+02   -0.45865E-03   -0.57041E-03 16034   0.429E-01    0.689E-03
RMM:   3    -0.152664875776E+02   -0.24101E-04   -0.25352E-04 16985   0.694E-02    0.180E-03
RMM:   4    -0.152664879394E+02   -0.36176E-06   -0.76971E-06 12408   0.135E-02
   5 F= -.15266488E+02 E0= -.15264610E+02  d E =-.495846E-02
       N       E                     dE             d eps       ncg     rms          rms(c)
DAV:   1    -0.152660972391E+02    0.39034E-03   -0.58743E-01 16572   0.437E+00    0.102E-01
RMM:   2    -0.152679706846E+02   -0.18734E-02   -0.23480E-02 16048   0.866E-01    0.355E-03
RMM:   3    -0.152680758094E+02   -0.10512E-03   -0.99772E-04 17016   0.138E-01    0.134E-02
RMM:   4    -0.152680656236E+02    0.10186E-04   -0.26867E-05 16078   0.276E-02    0.615E-03
RMM:   5    -0.152680647720E+02    0.85154E-06   -0.16033E-06 10921   0.682E-03
   6 F= -.15268065E+02 E0= -.15266161E+02  d E =-.653530E-02
       N       E                     dE             d eps       ncg     rms          rms(c)
DAV:   1    -0.152680368637E+02    0.28760E-04   -0.13114E-02 17684   0.652E-01    0.169E-02
RMM:   2    -0.152680779404E+02   -0.41077E-04   -0.53818E-04 16037   0.130E-01    0.102E-03
RMM:   3    -0.152680799853E+02   -0.20449E-05   -0.19673E-05 14251   0.195E-02    0.725E-04
RMM:   4    -0.152680801111E+02   -0.12573E-06   -0.59670E-07  9180   0.457E-03
   7 F= -.15268080E+02 E0= -.15266190E+02  d E =-.655064E-02
       N       E                     dE             d eps       ncg     rms          rms(c)
DAV:   1    -0.152680809417E+02   -0.95639E-06   -0.21056E-05 19840   0.263E-02    0.418E-04
RMM:   2    -0.152680809640E+02   -0.22267E-07   -0.58190E-07  8143   0.468E-03    0.172E-04
RMM:   3    -0.152680809729E+02   -0.89494E-08   -0.16075E-08  2178   0.137E-03    0.913E-05
RMM:   4    -0.152680809701E+02    0.27859E-08   -0.41028E-10   924   0.112E-03
   8 F= -.15268081E+02 E0= -.15266191E+02  d E =-.655150E-02
