Sn                                      
           1
     6.063183    0.059443    0.000000
     0.059443    5.944297    0.000000
     0.000000    0.000000    3.276290
   Sn
   4
Direct configuration=     1
   0.00000000  0.00000000  0.50000000
   0.50000000  0.00000000  0.75000000
   0.50000000  0.50000000  0.00000000
   0.00000000  0.50000000  0.25000000
Direct configuration=     2
   0.00000000  0.00000000  0.50043816
   0.50000000  0.00000000  0.74956184
   0.50000000  0.50000000  0.00043816
   0.00000000  0.50000000  0.24956184
Direct configuration=     3
   0.00000000  0.00000000  0.50175263
   0.50000000  0.00000000  0.74824737
   0.50000000  0.50000000  0.00175263
   0.00000000  0.50000000  0.24824737
Direct configuration=     4
   0.00000000  0.00000000  0.50438157
   0.50000000  0.00000000  0.74561843
   0.50000000  0.50000000  0.00438157
   0.00000000  0.50000000  0.24561843
Direct configuration=     5
   0.00000000  0.00000000  0.50963944
   0.50000000  0.00000000  0.74036056
   0.50000000  0.50000000  0.00963944
   0.00000000  0.50000000  0.24036056
Direct configuration=     6
   0.00000000  0.00000000  0.52015520
   0.50000000  0.00000000  0.72984480
   0.50000000  0.50000000  0.02015520
   0.00000000  0.50000000  0.22984480
Direct configuration=     7
   0.00000000  0.00000000  0.51859197
   0.50000000  0.00000000  0.73140803
   0.50000000  0.50000000  0.01859197
   0.00000000  0.50000000  0.23140803
Direct configuration=     8
   0.00000000  0.00000000  0.51865615
   0.50000000  0.00000000  0.73134385
   0.50000000  0.50000000  0.01865615
   0.00000000  0.50000000  0.23134385
