       N       E                     dE             d eps       ncg     rms          rms(c)
DAV:   1     0.632264979831E+02    0.63226E+02   -0.10454E+04 22792   0.958E+02
DAV:   2    -0.379573692405E+02   -0.10118E+03   -0.94959E+02 30852   0.150E+02
DAV:   3    -0.426280228220E+02   -0.46707E+01   -0.46024E+01 29414   0.311E+01
DAV:   4    -0.427142648024E+02   -0.86242E-01   -0.86011E-01 28518   0.525E+00
DAV:   5    -0.427166456654E+02   -0.23809E-02   -0.23797E-02 29174   0.743E-01    0.603E+00
RMM:   6    -0.420876348096E+02    0.62901E+00   -0.32766E-01 22792   0.226E+00    0.353E+00
RMM:   7    -0.418032223438E+02    0.28441E+00   -0.66459E-01 22792   0.323E+00    0.295E-01
RMM:   8    -0.418054466982E+02   -0.22244E-02   -0.20261E-02 22933   0.626E-01    0.341E-02
RMM:   9    -0.418056201970E+02   -0.17350E-03   -0.12685E-03 24337   0.158E-01    0.227E-02
RMM:  10    -0.418056526386E+02   -0.32442E-04   -0.96354E-05 22852   0.537E-02    0.133E-02
RMM:  11    -0.418056509185E+02    0.17201E-05   -0.15639E-05 22371   0.178E-02    0.321E-03
RMM:  12    -0.418056502788E+02    0.63970E-06   -0.88916E-07 14457   0.574E-03
   1 F= -.41805650E+02 E0= -.41805650E+02  d E =-.418057E+02
       N       E                     dE             d eps       ncg     rms          rms(c)
DAV:   1    -0.418116363678E+02   -0.59854E-02   -0.83337E-02 28294   0.145E+00    0.559E-02
RMM:   2    -0.418120765323E+02   -0.44016E-03   -0.46712E-03 22806   0.362E-01    0.613E-02
RMM:   3    -0.418121011419E+02   -0.24610E-04   -0.22935E-04 23108   0.889E-02    0.153E-02
RMM:   4    -0.418121064375E+02   -0.52956E-05   -0.25587E-05 23079   0.254E-02    0.217E-03
RMM:   5    -0.418121065759E+02   -0.13844E-06   -0.14790E-06 14354   0.700E-03
   2 F= -.41812107E+02 E0= -.41812107E+02  d E =-.645630E-02
       N       E                     dE             d eps       ncg     rms          rms(c)
DAV:   1    -0.418123275647E+02   -0.22113E-03   -0.46255E-03 28210   0.341E-01    0.133E-02
RMM:   2    -0.418123510911E+02   -0.23526E-04   -0.23260E-04 22805   0.835E-02    0.132E-03
RMM:   3    -0.418123525245E+02   -0.14335E-05   -0.12633E-05 19735   0.180E-02    0.317E-04
RMM:   4    -0.418123525770E+02   -0.52485E-07   -0.71783E-07 12387   0.527E-03
   3 F= -.41812353E+02 E0= -.41812353E+02  d E =-.670230E-02
