Si                                      
           1
     5.325765   -0.054345    0.000000
    -0.054345    5.434454    0.000000
     0.000000    0.000000    5.434454
   Si
   8
Direct configuration=     1
   0.00000000  0.00000000  0.00000000
   0.75000000  0.75000000  0.25000000
   0.00000000  0.50000000  0.50000000
   0.75000000  0.25000000  0.75000000
   0.50000000  0.00000000  0.50000000
   0.25000000  0.75000000  0.75000000
   0.50000000  0.50000000  0.00000000
   0.25000000  0.25000000  0.25000000
Direct configuration=     2
   0.00000000 -0.00000000 -0.00115247
   0.75000000  0.75000000  0.25115247
  -0.00000000  0.50000000  0.49884753
   0.75000000  0.25000000  0.75115247
   0.50000000  0.00000000  0.49884753
   0.25000000  0.75000000  0.75115247
   0.50000000  0.50000000 -0.00115247
   0.25000000  0.25000000  0.25115247
Direct configuration=     3
   0.00000000 -0.00000000 -0.00142484
   0.75000000  0.75000000  0.25142484
  -0.00000000  0.50000000  0.49857516
   0.75000000  0.25000000  0.75142484
   0.50000000  0.00000000  0.49857516
   0.25000000  0.75000000  0.75142484
   0.50000000  0.50000000 -0.00142484
   0.25000000  0.25000000  0.25142484
