       N       E                     dE             d eps       ncg     rms          rms(c)
DAV:   1     0.617255473180E+02    0.61726E+02   -0.10340E+04 22792   0.952E+02
DAV:   2    -0.378823448628E+02   -0.99608E+02   -0.93561E+02 30670   0.148E+02
DAV:   3    -0.425371219466E+02   -0.46548E+01   -0.45871E+01 29482   0.309E+01
DAV:   4    -0.426238676024E+02   -0.86746E-01   -0.86532E-01 28694   0.523E+00
DAV:   5    -0.426262428306E+02   -0.23752E-02   -0.23741E-02 29228   0.747E-01    0.584E+00
RMM:   6    -0.420676666487E+02    0.55858E+00   -0.27977E-01 22792   0.207E+00    0.344E+00
RMM:   7    -0.418074738288E+02    0.26019E+00   -0.58945E-01 22792   0.304E+00    0.278E-01
RMM:   8    -0.418097643024E+02   -0.22905E-02   -0.18183E-02 22936   0.597E-01    0.335E-02
RMM:   9    -0.418099399830E+02   -0.17568E-03   -0.11867E-03 24292   0.154E-01    0.215E-02
RMM:  10    -0.418099726299E+02   -0.32647E-04   -0.10090E-04 22843   0.553E-02    0.122E-02
RMM:  11    -0.418099712904E+02    0.13395E-05   -0.13775E-05 20835   0.173E-02    0.273E-03
RMM:  12    -0.418099706492E+02    0.64125E-06   -0.87043E-07 14421   0.574E-03
   1 F= -.41809971E+02 E0= -.41809971E+02  d E =-.418100E+02
       N       E                     dE             d eps       ncg     rms          rms(c)
DAV:   1    -0.418143536129E+02   -0.43823E-02   -0.55477E-02 28382   0.118E+00    0.457E-02
RMM:   2    -0.418146376332E+02   -0.28402E-03   -0.32619E-03 22807   0.297E-01    0.523E-02
RMM:   3    -0.418146709537E+02   -0.33321E-04   -0.20915E-04 23039   0.849E-02    0.133E-02
RMM:   4    -0.418146785694E+02   -0.76157E-05   -0.24326E-05 22938   0.265E-02    0.291E-03
RMM:   5    -0.418146787561E+02   -0.18667E-06   -0.14317E-06 14135   0.699E-03
   2 F= -.41814679E+02 E0= -.41814679E+02  d E =-.470811E-02
       N       E                     dE             d eps       ncg     rms          rms(c)
DAV:   1    -0.418149775333E+02   -0.29896E-03   -0.66460E-03 28000   0.407E-01    0.159E-02
RMM:   2    -0.418150129133E+02   -0.35380E-04   -0.35169E-04 22805   0.100E-01    0.191E-03
RMM:   3    -0.418150151383E+02   -0.22250E-05   -0.20320E-05 22334   0.226E-02    0.334E-04
RMM:   4    -0.418150152437E+02   -0.10540E-06   -0.99738E-07 12835   0.575E-03
   3 F= -.41815015E+02 E0= -.41815015E+02  d E =-.504459E-02
