Si                                      
           1
     5.543143    0.054345    0.000000
     0.054345    5.434454    0.000000
     0.000000    0.000000    5.434454
   Si
   8
Direct configuration=     1
   0.00000000  0.00000000  0.00000000
   0.75000000  0.75000000  0.25000000
   0.00000000  0.50000000  0.50000000
   0.75000000  0.25000000  0.75000000
   0.50000000  0.00000000  0.50000000
   0.25000000  0.75000000  0.75000000
   0.50000000  0.50000000  0.00000000
   0.25000000  0.25000000  0.25000000
Direct configuration=     2
  -0.00000000  0.00000000  0.00095750
   0.75000000  0.75000000  0.24904250
  -0.00000000  0.50000000  0.50095750
   0.75000000  0.25000000  0.74904250
   0.50000000  0.00000000  0.50095750
   0.25000000  0.75000000  0.74904250
   0.50000000  0.50000000  0.00095750
   0.25000000  0.25000000  0.24904250
Direct configuration=     3
  -0.00000000  0.00000000  0.00128986
   0.75000000  0.75000000  0.24871014
  -0.00000000  0.50000000  0.50128986
   0.75000000  0.25000000  0.74871014
   0.50000000  0.00000000  0.50128986
   0.25000000  0.75000000  0.74871014
   0.50000000  0.50000000  0.00128986
   0.25000000  0.25000000  0.24871014
