       N       E                     dE             d eps       ncg     rms          rms(c)
DAV:   1     0.940908644039E+03    0.94091E+03   -0.54108E+04 30576   0.176E+03
DAV:   2     0.304459776662E+01   -0.93786E+03   -0.90689E+03 30576   0.403E+02
DAV:   3    -0.925160191544E+02   -0.95561E+02   -0.90854E+02 31864   0.150E+02
DAV:   4    -0.961095796437E+02   -0.35936E+01   -0.35314E+01 35856   0.286E+01
DAV:   5    -0.962021206223E+02   -0.92541E-01   -0.92310E-01 36996   0.397E+00    0.344E+01
RMM:   6    -0.103548855224E+03   -0.73467E+01   -0.43004E+02 30649   0.124E+02    0.251E+01
RMM:   7    -0.789671199439E+02    0.24582E+02   -0.92427E+01 30576   0.618E+01    0.271E+00
RMM:   8    -0.790300536186E+02   -0.62934E-01   -0.89831E+00 30576   0.156E+01    0.458E+00
RMM:   9    -0.786062750000E+02    0.42378E+00   -0.98213E-01 30576   0.628E+00    0.533E-01
RMM:  10    -0.786010625531E+02    0.52124E-02   -0.29895E-02 30581   0.720E-01    0.304E-01
RMM:  11    -0.785988231912E+02    0.22394E-02   -0.18005E-02 30576   0.571E-01    0.768E-02
RMM:  12    -0.785987420568E+02    0.81134E-04   -0.45405E-04 30580   0.891E-02    0.516E-02
RMM:  13    -0.785987138428E+02    0.28214E-04   -0.21170E-04 30576   0.792E-02    0.224E-02
RMM:  14    -0.785987008461E+02    0.12997E-04   -0.31606E-05 19914   0.342E-02    0.440E-03
RMM:  15    -0.785987014826E+02   -0.63643E-06   -0.62454E-06 17210   0.148E-02
   1 F= -.78598701E+02 E0= -.78594601E+02  d E =-.785987E+02
       N       E                     dE             d eps       ncg     rms          rms(c)
DAV:   1    -0.785998117598E+02   -0.11109E-02   -0.35161E-02 32912   0.701E-01    0.199E-02
RMM:   2    -0.785998475886E+02   -0.35829E-04   -0.48112E-04 30576   0.131E-01    0.265E-02
RMM:   3    -0.785998345338E+02    0.13055E-04   -0.11948E-04 30571   0.578E-02    0.780E-03
RMM:   4    -0.785998306453E+02    0.38885E-05   -0.48539E-06 16436   0.137E-02
   2 F= -.78599831E+02 E0= -.78595735E+02  d E =-.112916E-02
       N       E                     dE             d eps       ncg     rms          rms(c)
DAV:   1    -0.786014704791E+02   -0.16359E-02   -0.31617E-01 31492   0.210E+00    0.599E-02
RMM:   2    -0.786016258796E+02   -0.15540E-03   -0.34627E-03 30576   0.350E-01    0.991E-03
RMM:   3    -0.786016352984E+02   -0.94188E-05   -0.14435E-04 28267   0.533E-02    0.308E-03
RMM:   4    -0.786016368365E+02   -0.15381E-05   -0.17606E-05 18358   0.215E-02
   3 F= -.78601637E+02 E0= -.78597546E+02  d E =-.293535E-02
       N       E                     dE             d eps       ncg     rms          rms(c)
DAV:   1    -0.786017122492E+02   -0.76951E-04   -0.23374E-02 32440   0.573E-01    0.161E-02
RMM:   2    -0.786017229126E+02   -0.10663E-04   -0.25790E-04 30552   0.940E-02    0.242E-03
RMM:   3    -0.786017234994E+02   -0.58683E-06   -0.92690E-06 16920   0.152E-02    0.684E-04
RMM:   4    -0.786017238506E+02   -0.35117E-06   -0.26258E-06 16105   0.899E-03
   4 F= -.78601724E+02 E0= -.78597633E+02  d E =-.302237E-02
       N       E                     dE             d eps       ncg     rms          rms(c)
DAV:   1    -0.786019080092E+02   -0.18451E-03   -0.48158E-02 31140   0.796E-01    0.208E-02
RMM:   2    -0.786019129271E+02   -0.49179E-05   -0.13482E-04 30551   0.706E-02    0.207E-02
RMM:   3    -0.786019003380E+02    0.12589E-04   -0.44439E-05 23463   0.339E-02    0.485E-03
RMM:   4    -0.786019000812E+02    0.25682E-06   -0.87814E-06 15791   0.196E-02
   5 F= -.78601900E+02 E0= -.78597804E+02  d E =-.176231E-03
       N       E                     dE             d eps       ncg     rms          rms(c)
DAV:   1    -0.786020537275E+02   -0.15339E-03   -0.15743E-01 30756   0.144E+00    0.371E-02
RMM:   2    -0.786020272071E+02    0.26520E-04   -0.29884E-04 30576   0.113E-01    0.966E-03
RMM:   3    -0.786020289139E+02   -0.17068E-05   -0.11128E-05 17165   0.157E-02    0.122E-02
RMM:   4    -0.786020271798E+02    0.17340E-05   -0.44472E-06 16090   0.139E-02
   6 F= -.78602027E+02 E0= -.78597921E+02  d E =-.303329E-03
       N       E                     dE             d eps       ncg     rms          rms(c)
DAV:   1    -0.786020679967E+02   -0.39083E-04   -0.13094E-02 31380   0.424E-01    0.115E-02
RMM:   2    -0.786020669641E+02    0.10326E-05   -0.41901E-05 22257   0.427E-02    0.554E-03
RMM:   3    -0.786020681391E+02   -0.11750E-05   -0.93072E-06 15836   0.145E-02    0.822E-03
RMM:   4    -0.786020669138E+02    0.12253E-05   -0.14518E-05 15616   0.257E-02
   7 F= -.78602067E+02 E0= -.78597965E+02  d E =-.397340E-04
       N       E                     dE             d eps       ncg     rms          rms(c)
DAV:   1    -0.786020772133E+02   -0.90742E-05   -0.81094E-03 31076   0.333E-01    0.873E-03
RMM:   2    -0.786020763224E+02    0.89098E-06   -0.23119E-05 17237   0.324E-02    0.284E-03
RMM:   3    -0.786020764335E+02   -0.11111E-06   -0.30916E-06 15609   0.917E-03    0.103E-03
RMM:   4    -0.786020765113E+02   -0.77846E-07   -0.63659E-07 15498   0.509E-03
   8 F= -.78602077E+02 E0= -.78597978E+02  d E =-.493315E-04
       N       E                     dE             d eps       ncg     rms          rms(c)
DAV:   1    -0.786020942712E+02   -0.17838E-04   -0.88862E-03 30920   0.346E-01    0.840E-03
RMM:   2    -0.786020998183E+02   -0.55471E-05   -0.53773E-05 23914   0.469E-02    0.189E-02
RMM:   3    -0.786020982325E+02    0.15858E-05   -0.61431E-06 15495   0.143E-02    0.157E-02
RMM:   4    -0.786020932787E+02    0.49538E-05   -0.10645E-05 15457   0.203E-02
   9 F= -.78602093E+02 E0= -.78597998E+02  d E =-.167674E-04
       N       E                     dE             d eps       ncg     rms          rms(c)
DAV:   1    -0.786021094668E+02   -0.11234E-04   -0.35291E-02 30680   0.691E-01    0.172E-02
RMM:   2    -0.786021044369E+02    0.50299E-05   -0.67584E-05 29090   0.551E-02    0.547E-03
RMM:   3    -0.786021052360E+02   -0.79907E-06   -0.31144E-06 15857   0.921E-03    0.704E-03
RMM:   4    -0.786021043955E+02    0.84049E-06   -0.28276E-06 15602   0.116E-02
  10 F= -.78602104E+02 E0= -.78598019E+02  d E =-.278842E-04
       N       E                     dE             d eps       ncg     rms          rms(c)
DAV:   1    -0.786021044931E+02    0.74284E-06   -0.40295E-04 31932   0.740E-02    0.235E-03
RMM:   2    -0.786021044517E+02    0.41489E-07   -0.72237E-07 15338   0.593E-03    0.798E-04
RMM:   3    -0.786021044894E+02   -0.37752E-07   -0.99229E-11  1471   0.176E-03    0.890E-04
RMM:   4    -0.786021044073E+02    0.82150E-07   -0.15426E-10  1097   0.170E-03
  11 F= -.78602104E+02 E0= -.78598018E+02  d E =-.278959E-04
       N       E                     dE             d eps       ncg     rms          rms(c)
DAV:   1    -0.786021097957E+02   -0.53063E-05   -0.53763E-03 30704   0.270E-01    0.667E-03
RMM:   2    -0.786021105667E+02   -0.77095E-06   -0.14845E-05 15380   0.266E-02    0.106E-02
RMM:   3    -0.786021111762E+02   -0.60952E-06   -0.23670E-05 17046   0.304E-02    0.883E-03
RMM:   4    -0.786021097495E+02    0.14267E-05   -0.54467E-06 15311   0.170E-02
  12 F= -.78602110E+02 E0= -.78598027E+02  d E =-.534227E-05
