AlCu                                    
           1
    12.119773    0.000000    0.008397
     0.000000    4.104732    0.000000
    -3.973711    0.000000    5.571161
   Al   Cu
  10  10
Direct configuration=     1
   0.50000000  0.00000000  0.50000000
   0.15587366  0.00000000  0.46137374
   0.84412632  0.00000000  0.53862623
   0.87805559  0.50000000  0.99541334
   0.12194440  0.50000000  0.00458663
   0.00000000  0.50000000  0.50000000
   0.65587368  0.50000000  0.46137374
   0.34412635  0.50000000  0.53862623
   0.37805559  0.00000000  0.99541334
   0.62194441  0.00000000  0.00458663
   0.00000000  0.00000000  0.00000000
   0.25805145  0.00000000  0.24172886
   0.74194852  0.00000000  0.75827112
   0.10866387  0.00000000  0.77167894
   0.89133614  0.00000000  0.22832103
   0.50000000  0.50000000  0.00000000
   0.75805148  0.50000000  0.24172886
   0.24194855  0.50000000  0.75827112
   0.60866386  0.50000000  0.77167894
   0.39133614  0.50000000  0.22832103
Direct configuration=     2
   0.50000000  0.00000000  0.50000000
   0.15596808 -0.00000000  0.46139872
   0.84403190 -0.00000000  0.53860125
   0.87820738  0.50000000  0.99526410
   0.12179261  0.50000000  0.00473587
   0.00000000  0.50000000  0.50000000
   0.65596810  0.50000000  0.46139872
   0.34403193  0.50000000  0.53860125
   0.37820738  0.00000000  0.99526410
   0.62179262 -0.00000000  0.00473587
   0.00000000  0.00000000  0.00000000
   0.25804976  0.00000000  0.24176265
   0.74195021 -0.00000000  0.75823734
   0.10861295  0.00000000  0.77146893
   0.89138707  0.00000000  0.22853104
   0.50000000  0.50000000  0.00000000
   0.75804979  0.50000000  0.24176265
   0.24195024  0.50000000  0.75823734
   0.60861293  0.50000000  0.77146893
   0.39138707  0.50000000  0.22853104
Direct configuration=     3
   0.50000000  0.00000000  0.50000000
   0.15625135 -0.00000000  0.46147365
   0.84374863 -0.00000000  0.53852632
   0.87866275  0.50000000  0.99481638
   0.12133724  0.50000000  0.00518359
   0.00000000  0.50000000  0.50000000
   0.65625137  0.50000000  0.46147365
   0.34374866  0.50000000  0.53852632
   0.37866275  0.00000000  0.99481638
   0.62133725 -0.00000000  0.00518359
   0.00000000  0.00000000  0.00000000
   0.25804469  0.00000000  0.24186400
   0.74195528 -0.00000000  0.75813598
   0.10846017  0.00000000  0.77083889
   0.89153984  0.00000000  0.22916108
   0.50000000  0.50000000  0.00000000
   0.75804472  0.50000000  0.24186400
   0.24195531  0.50000000  0.75813598
   0.60846016  0.50000000  0.77083889
   0.39153984  0.50000000  0.22916108
Direct configuration=     4
   0.50000000  0.00000000  0.50000000
   0.15632832 -0.00000000  0.46149401
   0.84367166 -0.00000000  0.53850596
   0.87878648  0.50000000  0.99469473
   0.12121351  0.50000000  0.00530525
   0.00000000  0.50000000  0.50000000
   0.65632834  0.50000000  0.46149401
   0.34367169  0.50000000  0.53850596
   0.37878648  0.00000000  0.99469473
   0.62121352 -0.00000000  0.00530525
   0.00000000  0.00000000  0.00000000
   0.25804331  0.00000000  0.24189154
   0.74195666 -0.00000000  0.75810845
   0.10841866  0.00000000  0.77066770
   0.89158135  0.00000000  0.22933227
   0.50000000  0.50000000  0.00000000
   0.75804334  0.50000000  0.24189154
   0.24195669  0.50000000  0.75810845
   0.60841865  0.50000000  0.77066770
   0.39158135  0.50000000  0.22933227
Direct configuration=     5
   0.50000000  0.00000000  0.50000000
   0.15634691 -0.00000000  0.46156815
   0.84365308 -0.00000000  0.53843182
   0.87880874  0.50000000  0.99461963
   0.12119126  0.50000000  0.00538034
   0.00000000  0.50000000  0.50000000
   0.65634692  0.50000000  0.46156815
   0.34365311  0.50000000  0.53843182
   0.37880874  0.00000000  0.99461963
   0.62119126 -0.00000000  0.00538034
   0.00000000  0.00000000  0.00000000
   0.25803588  0.00000000  0.24166358
   0.74196409 -0.00000000  0.75833640
   0.10840139  0.00000000  0.77063449
   0.89159862  0.00000000  0.22936548
   0.50000000  0.50000000  0.00000000
   0.75803591  0.50000000  0.24166358
   0.24196412  0.50000000  0.75833640
   0.60840138  0.50000000  0.77063449
   0.39159862  0.50000000  0.22936548
Direct configuration=     6
   0.50000000  0.00000000  0.50000000
   0.15638051 -0.00000000  0.46170220
   0.84361947 -0.00000000  0.53829777
   0.87884897  0.50000000  0.99448386
   0.12115102  0.50000000  0.00551612
  -0.00000000  0.50000000  0.50000000
   0.65638053  0.50000000  0.46170220
   0.34361950  0.50000000  0.53829777
   0.37884897  0.00000000  0.99448386
   0.62115103 -0.00000000  0.00551612
  -0.00000000  0.00000000  0.00000000
   0.25802246  0.00000000  0.24125142
   0.74197751 -0.00000000  0.75874856
   0.10837017  0.00000000  0.77057443
   0.89162984  0.00000000  0.22942554
   0.50000000  0.50000000  0.00000000
   0.75802249  0.50000000  0.24125142
   0.24197754  0.50000000  0.75874856
   0.60837016  0.50000000  0.77057443
   0.39162984  0.50000000  0.22942554
Direct configuration=     7
   0.50000000  0.00000000  0.50000000
   0.15643246 -0.00000000  0.46167467
   0.84356752 -0.00000000  0.53832530
   0.87884784  0.50000000  0.99447892
   0.12115215  0.50000000  0.00552106
  -0.00000000  0.50000000  0.50000000
   0.65643248  0.50000000  0.46167467
   0.34356755  0.50000000  0.53832530
   0.37884784  0.00000000  0.99447892
   0.62115216  0.00000000  0.00552106
  -0.00000000  0.00000000  0.00000000
   0.25800735  0.00000000  0.24115309
   0.74199262 -0.00000000  0.75884689
   0.10832581  0.00000000  0.77057243
   0.89167421  0.00000000  0.22942754
   0.50000000  0.50000000  0.00000000
   0.75800738  0.50000000  0.24115309
   0.24199265  0.50000000  0.75884689
   0.60832579  0.50000000  0.77057243
   0.39167421  0.50000000  0.22942754
Direct configuration=     8
   0.50000000  0.00000000  0.50000000
   0.15647335 -0.00000000  0.46165301
   0.84352663 -0.00000000  0.53834696
   0.87884695  0.50000000  0.99447503
   0.12115305  0.50000000  0.00552494
  -0.00000000  0.50000000  0.50000000
   0.65647337  0.50000000  0.46165301
   0.34352666  0.50000000  0.53834696
   0.37884695  0.00000000  0.99447503
   0.62115305  0.00000000  0.00552494
  -0.00000000  0.00000000  0.00000000
   0.25799545  0.00000000  0.24107570
   0.74200452 -0.00000000  0.75892428
   0.10829089  0.00000000  0.77057085
   0.89170912  0.00000000  0.22942912
   0.50000000  0.50000000  0.00000000
   0.75799548  0.50000000  0.24107570
   0.24200455  0.50000000  0.75892428
   0.60829088  0.50000000  0.77057085
   0.39170912  0.50000000  0.22942912
Direct configuration=     9
   0.50000000  0.00000000  0.50000000
   0.15650332  0.00000000  0.46168029
   0.84349666 -0.00000000  0.53831969
   0.87883849  0.50000000  0.99449424
   0.12116150  0.50000000  0.00550574
  -0.00000000  0.50000000  0.50000000
   0.65650334  0.50000000  0.46168029
   0.34349669  0.50000000  0.53831969
   0.37883849  0.00000000  0.99449424
   0.62116151  0.00000000  0.00550574
  -0.00000000  0.00000000  0.00000000
   0.25801605  0.00000000  0.24105848
   0.74198392 -0.00000000  0.75894151
   0.10823780  0.00000000  0.77048551
   0.89176222  0.00000000  0.22951446
   0.50000000  0.50000000  0.00000000
   0.75801608  0.50000000  0.24105848
   0.24198395  0.50000000  0.75894151
   0.60823778  0.50000000  0.77048551
   0.39176222  0.50000000  0.22951446
Direct configuration=    10
   0.50000000  0.00000000  0.50000000
   0.15656306  0.00000000  0.46173466
   0.84343692 -0.00000000  0.53826531
   0.87882165  0.50000000  0.99453253
   0.12117835  0.50000000  0.00546745
  -0.00000000  0.50000000  0.50000000
   0.65656308  0.50000000  0.46173466
   0.34343695  0.50000000  0.53826531
   0.37882165  0.00000000  0.99453253
   0.62117835  0.00000000  0.00546745
  -0.00000000  0.00000000  0.00000000
   0.25805710  0.00000000  0.24102415
   0.74194287 -0.00000000  0.75897584
   0.10813196  0.00000000  0.77031541
   0.89186806  0.00000000  0.22968456
   0.50000000  0.50000000  0.00000000
   0.75805713  0.50000000  0.24102415
   0.24194290  0.50000000  0.75897584
   0.60813194  0.50000000  0.77031541
   0.39186806  0.50000000  0.22968456
Direct configuration=    11
   0.50000000  0.00000000  0.50000000
   0.15655667  0.00000000  0.46172884
   0.84344331 -0.00000000  0.53827113
   0.87882345  0.50000000  0.99452843
   0.12117654  0.50000000  0.00547155
  -0.00000000  0.50000000  0.50000000
   0.65655669  0.50000000  0.46172884
   0.34344334  0.50000000  0.53827113
   0.37882345  0.00000000  0.99452843
   0.62117655  0.00000000  0.00547155
  -0.00000000  0.00000000  0.00000000
   0.25805271  0.00000000  0.24102782
   0.74194726 -0.00000000  0.75897216
   0.10814328  0.00000000  0.77033362
   0.89185673  0.00000000  0.22966635
   0.50000000  0.50000000  0.00000000
   0.75805274  0.50000000  0.24102782
   0.24194729  0.50000000  0.75897216
   0.60814327  0.50000000  0.77033362
   0.39185673  0.50000000  0.22966635
Direct configuration=    12
   0.50000000  0.00000000  0.50000000
   0.15657105  0.00000000  0.46174727
   0.84342894 -0.00000000  0.53825270
   0.87881575  0.50000000  0.99453817
   0.12118425  0.50000000  0.00546180
  -0.00000000  0.50000000  0.50000000
   0.65657106  0.50000000  0.46174727
   0.34342897  0.50000000  0.53825270
   0.37881575  0.00000000  0.99453817
   0.62118425  0.00000000  0.00546180
  -0.00000000  0.00000000  0.00000000
   0.25801958  0.00000000  0.24098565
   0.74198039 -0.00000000  0.75901434
   0.10810785  0.00000000  0.77027281
   0.89189216  0.00000000  0.22972716
   0.50000000  0.50000000  0.00000000
   0.75801961  0.50000000  0.24098565
   0.24198042  0.50000000  0.75901434
   0.60810784  0.50000000  0.77027281
   0.39189216  0.50000000  0.22972716
