       N       E                     dE             d eps       ncg     rms          rms(c)
DAV:   1     0.922173369657E+03    0.92217E+03   -0.54037E+04 30576   0.174E+03
DAV:   2    -0.533163091716E+00   -0.92271E+03   -0.89258E+03 30576   0.396E+02
DAV:   3    -0.920410639639E+02   -0.91508E+02   -0.86888E+02 32076   0.147E+02
DAV:   4    -0.955026964924E+02   -0.34616E+01   -0.34017E+01 35900   0.278E+01
DAV:   5    -0.955941868791E+02   -0.91490E-01   -0.91229E-01 36992   0.390E+00    0.340E+01
RMM:   6    -0.103778707104E+03   -0.81845E+01   -0.42722E+02 30623   0.123E+02    0.254E+01
RMM:   7    -0.790122633564E+02    0.24766E+02   -0.91961E+01 30576   0.615E+01    0.292E+00
RMM:   8    -0.790587160030E+02   -0.46453E-01   -0.96116E+00 30576   0.160E+01    0.463E+00
RMM:   9    -0.786261274126E+02    0.43259E+00   -0.98248E-01 30576   0.627E+00    0.593E-01
RMM:  10    -0.786196132649E+02    0.65141E-02   -0.33260E-02 30580   0.783E-01    0.331E-01
RMM:  11    -0.786168397299E+02    0.27735E-02   -0.18595E-02 30576   0.584E-01    0.706E-02
RMM:  12    -0.786168344100E+02    0.53199E-05   -0.53152E-04 30582   0.933E-02    0.441E-02
RMM:  13    -0.786168217590E+02    0.12651E-04   -0.15219E-04 30573   0.652E-02    0.230E-02
RMM:  14    -0.786168086665E+02    0.13092E-04   -0.27686E-05 18710   0.326E-02    0.717E-03
RMM:  15    -0.786168081979E+02    0.46863E-06   -0.49135E-06 17189   0.109E-02
   1 F= -.78616808E+02 E0= -.78611781E+02  d E =-.786168E+02
       N       E                     dE             d eps       ncg     rms          rms(c)
DAV:   1    -0.786176507132E+02   -0.84205E-03   -0.11621E-02 32980   0.414E-01    0.137E-02
RMM:   2    -0.786176742860E+02   -0.23573E-04   -0.28425E-04 30576   0.101E-01    0.166E-02
RMM:   3    -0.786176684318E+02    0.58542E-05   -0.53042E-05 26312   0.381E-02    0.617E-03
RMM:   4    -0.786176690406E+02   -0.60877E-06   -0.52086E-06 16275   0.151E-02
   2 F= -.78617669E+02 E0= -.78612649E+02  d E =-.860843E-03
       N       E                     dE             d eps       ncg     rms          rms(c)
DAV:   1    -0.786190936141E+02   -0.14252E-02   -0.10482E-01 31544   0.124E+00    0.422E-02
RMM:   2    -0.786192309691E+02   -0.13736E-03   -0.22046E-03 30576   0.261E-01    0.109E-02
RMM:   3    -0.786192357459E+02   -0.47768E-05   -0.98517E-05 24601   0.436E-02    0.377E-03
RMM:   4    -0.786192364779E+02   -0.73202E-06   -0.12522E-05 17867   0.168E-02
   3 F= -.78619236E+02 E0= -.78614233E+02  d E =-.242828E-02
       N       E                     dE             d eps       ncg     rms          rms(c)
DAV:   1    -0.786194071765E+02   -0.17143E-03   -0.25749E-02 31824   0.617E-01    0.207E-02
RMM:   2    -0.786194426459E+02   -0.35469E-04   -0.54506E-04 30576   0.130E-01    0.159E-03
RMM:   3    -0.786194446126E+02   -0.19667E-05   -0.22562E-05 19280   0.207E-02    0.106E-03
RMM:   4    -0.786194449710E+02   -0.35843E-06   -0.42697E-06 16496   0.113E-02
   4 F= -.78619445E+02 E0= -.78614448E+02  d E =-.263677E-02
       N       E                     dE             d eps       ncg     rms          rms(c)
DAV:   1    -0.786195764306E+02   -0.13182E-03   -0.36809E-02 31524   0.698E-01    0.176E-02
RMM:   2    -0.786195827456E+02   -0.63150E-05   -0.10677E-04 30477   0.631E-02    0.171E-02
RMM:   3    -0.786195730366E+02    0.97091E-05   -0.39175E-05 21047   0.330E-02    0.712E-03
RMM:   4    -0.786195724239E+02    0.61270E-06   -0.68427E-06 15770   0.172E-02
   5 F= -.78619572E+02 E0= -.78614577E+02  d E =-.127453E-03
       N       E                     dE             d eps       ncg     rms          rms(c)
DAV:   1    -0.786196528053E+02   -0.79769E-04   -0.76510E-02 30936   0.101E+00    0.256E-02
RMM:   2    -0.786196440188E+02    0.87865E-05   -0.16133E-04 30563   0.815E-02    0.361E-03
RMM:   3    -0.786196441756E+02   -0.15682E-06   -0.92796E-06 16654   0.164E-02    0.387E-03
RMM:   4    -0.786196440199E+02    0.15577E-06   -0.25778E-06 15893   0.110E-02
   6 F= -.78619644E+02 E0= -.78614650E+02  d E =-.199049E-03
       N       E                     dE             d eps       ncg     rms          rms(c)
DAV:   1    -0.786196680180E+02   -0.23842E-04   -0.96625E-03 31500   0.360E-01    0.869E-03
RMM:   2    -0.786196686081E+02   -0.59011E-06   -0.31012E-05 17685   0.354E-02    0.965E-03
RMM:   3    -0.786196682137E+02    0.39439E-06   -0.11643E-05 15779   0.212E-02    0.204E-03
RMM:   4    -0.786196692810E+02   -0.10674E-05   -0.61361E-06 15531   0.128E-02
   7 F= -.78619669E+02 E0= -.78614676E+02  d E =-.252612E-04
       N       E                     dE             d eps       ncg     rms          rms(c)
DAV:   1    -0.786196733688E+02   -0.51551E-05   -0.41896E-03 31280   0.238E-01    0.667E-03
RMM:   2    -0.786196730989E+02    0.26986E-06   -0.11384E-05 15745   0.223E-02    0.280E-03
RMM:   3    -0.786196732717E+02   -0.17277E-06   -0.15045E-06 15465   0.655E-03    0.207E-03
RMM:   4    -0.786196733106E+02   -0.38959E-07   -0.25579E-07 11539   0.334E-03
