AlCu                                    
           1
    12.119773    0.000000    0.008739
     0.000000    4.104732    0.000000
    -3.973711    0.000000    5.798555
   Al   Cu
  10  10
Direct configuration=     1
   0.50000000  0.00000000  0.50000000
   0.15587366  0.00000000  0.46137374
   0.84412632  0.00000000  0.53862623
   0.87805559  0.50000000  0.99541334
   0.12194440  0.50000000  0.00458663
   0.00000000  0.50000000  0.50000000
   0.65587368  0.50000000  0.46137374
   0.34412635  0.50000000  0.53862623
   0.37805559  0.00000000  0.99541334
   0.62194441  0.00000000  0.00458663
   0.00000000  0.00000000  0.00000000
   0.25805145  0.00000000  0.24172886
   0.74194852  0.00000000  0.75827112
   0.10866387  0.00000000  0.77167894
   0.89133614  0.00000000  0.22832103
   0.50000000  0.50000000  0.00000000
   0.75805148  0.50000000  0.24172886
   0.24194855  0.50000000  0.75827112
   0.60866386  0.50000000  0.77167894
   0.39133614  0.50000000  0.22832103
Direct configuration=     2
   0.50000000 -0.00000000  0.50000000
   0.15580031 -0.00000000  0.46138525
   0.84419967 -0.00000000  0.53861472
   0.87788667  0.50000000  0.99548222
   0.12211333  0.50000000  0.00451775
  -0.00000000  0.50000000  0.50000000
   0.65580033  0.50000000  0.46138525
   0.34419970  0.50000000  0.53861472
   0.37788667 -0.00000000  0.99548222
   0.62211333 -0.00000000  0.00451775
  -0.00000000 -0.00000000  0.00000000
   0.25804721 -0.00000000  0.24172546
   0.74195276 -0.00000000  0.75827453
   0.10866639 -0.00000000  0.77177221
   0.89133363 -0.00000000  0.22822776
   0.50000000  0.50000000  0.00000000
   0.75804724  0.50000000  0.24172546
   0.24195279  0.50000000  0.75827453
   0.60866637  0.50000000  0.77177221
   0.39133363  0.50000000  0.22822776
Direct configuration=     3
   0.50000000 -0.00000000  0.50000000
   0.15558027 -0.00000000  0.46141978
   0.84441971 -0.00000000  0.53858019
   0.87737989  0.50000000  0.99568886
   0.12262010  0.50000000  0.00431112
  -0.00000000  0.50000000  0.50000000
   0.65558029  0.50000000  0.46141978
   0.34441974  0.50000000  0.53858019
   0.37737989 -0.00000000  0.99568886
   0.62262011 -0.00000000  0.00431112
  -0.00000000 -0.00000000  0.00000000
   0.25803450 -0.00000000  0.24171523
   0.74196547 -0.00000000  0.75828475
   0.10867394 -0.00000000  0.77205203
   0.89132608 -0.00000000  0.22794794
   0.50000000  0.50000000  0.00000000
   0.75803453  0.50000000  0.24171523
   0.24196550  0.50000000  0.75828475
   0.60867392  0.50000000  0.77205203
   0.39132608  0.50000000  0.22794794
Direct configuration=     4
   0.50000000 -0.00000000  0.50000000
   0.15547125 -0.00000000  0.46143689
   0.84452873 -0.00000000  0.53856308
   0.87712880  0.50000000  0.99579124
   0.12287119  0.50000000  0.00420874
  -0.00000000  0.50000000  0.50000000
   0.65547127  0.50000000  0.46143689
   0.34452876  0.50000000  0.53856308
   0.37712880 -0.00000000  0.99579124
   0.62287120 -0.00000000  0.00420874
  -0.00000000 -0.00000000  0.00000000
   0.25802820 -0.00000000  0.24171016
   0.74197177 -0.00000000  0.75828982
   0.10867768 -0.00000000  0.77219068
   0.89132234 -0.00000000  0.22780929
   0.50000000  0.50000000  0.00000000
   0.75802823  0.50000000  0.24171016
   0.24197180  0.50000000  0.75828982
   0.60867766  0.50000000  0.77219068
   0.39132234  0.50000000  0.22780929
Direct configuration=     5
   0.50000000  0.00000000  0.50000000
   0.15547938 -0.00000000  0.46137441
   0.84452061 -0.00000000  0.53862556
   0.87708847  0.50000000  0.99581269
   0.12291152  0.50000000  0.00418728
  -0.00000000  0.50000000  0.50000000
   0.65547939  0.50000000  0.46137441
   0.34452064  0.50000000  0.53862556
   0.37708847 -0.00000000  0.99581269
   0.62291153 -0.00000000  0.00418728
  -0.00000000  0.00000000 -0.00000000
   0.25802405  0.00000000  0.24188785
   0.74197592  0.00000000  0.75811213
   0.10864635  0.00000000  0.77218418
   0.89135366  0.00000000  0.22781579
   0.50000000  0.50000000 -0.00000000
   0.75802408  0.50000000  0.24188785
   0.24197595  0.50000000  0.75811213
   0.60864634  0.50000000  0.77218418
   0.39135366  0.50000000  0.22781579
Direct configuration=     6
   0.50000000  0.00000000  0.50000000
   0.15549109 -0.00000000  0.46128435
   0.84450890 -0.00000000  0.53871562
   0.87703034  0.50000000  0.99584362
   0.12296966  0.50000000  0.00415635
  -0.00000000  0.50000000  0.50000000
   0.65549110  0.50000000  0.46128435
   0.34450893  0.50000000  0.53871562
   0.37703034 -0.00000000  0.99584362
   0.62296966  0.00000000  0.00415635
  -0.00000000  0.00000000 -0.00000000
   0.25801807  0.00000000  0.24214399
   0.74198190  0.00000000  0.75785599
   0.10860120  0.00000000  0.77217483
   0.89139882  0.00000000  0.22782514
   0.50000000  0.50000000 -0.00000000
   0.75801810  0.50000000  0.24214399
   0.24198193  0.50000000  0.75785599
   0.60860118  0.50000000  0.77217483
   0.39139882  0.50000000  0.22782514
Direct configuration=     7
   0.50000000  0.00000000  0.50000000
   0.15546654 -0.00000000  0.46130500
   0.84453344 -0.00000000  0.53869497
   0.87701585  0.50000000  0.99583064
   0.12298414  0.50000000  0.00416933
  -0.00000000  0.50000000  0.50000000
   0.65546656  0.50000000  0.46130500
   0.34453347  0.50000000  0.53869497
   0.37701585 -0.00000000  0.99583064
   0.62298415 -0.00000000  0.00416933
  -0.00000000  0.00000000 -0.00000000
   0.25804839  0.00000000  0.24224353
   0.74195158  0.00000000  0.75775646
   0.10858966  0.00000000  0.77211610
   0.89141035  0.00000000  0.22788387
   0.50000000  0.50000000 -0.00000000
   0.75804842  0.50000000  0.24224353
   0.24195161  0.50000000  0.75775646
   0.60858965  0.50000000  0.77211610
   0.39141035  0.50000000  0.22788387
Direct configuration=     8
   0.50000000  0.00000000  0.50000000
   0.15545039 -0.00000000  0.46131859
   0.84454959 -0.00000000  0.53868138
   0.87700632  0.50000000  0.99582210
   0.12299367  0.50000000  0.00417788
  -0.00000000  0.50000000  0.50000000
   0.65545041  0.50000000  0.46131859
   0.34454962  0.50000000  0.53868138
   0.37700632 -0.00000000  0.99582210
   0.62299368 -0.00000000  0.00417788
  -0.00000000  0.00000000 -0.00000000
   0.25806834  0.00000000  0.24230903
   0.74193163  0.00000000  0.75769096
   0.10858207  0.00000000  0.77207746
   0.89141794  0.00000000  0.22792251
   0.50000000  0.50000000 -0.00000000
   0.75806837  0.50000000  0.24230903
   0.24193166  0.50000000  0.75769096
   0.60858206  0.50000000  0.77207746
   0.39141794  0.50000000  0.22792251
