       N       E                     dE             d eps       ncg     rms          rms(c)
DAV:   1     0.877312933807E+03    0.87731E+03   -0.83483E+04 23264   0.175E+03
DAV:   2    -0.195087977892E+03   -0.10724E+04   -0.10472E+04 28616   0.348E+02
DAV:   3    -0.250383561084E+03   -0.55296E+02   -0.55078E+02 27368   0.855E+01
DAV:   4    -0.251031704347E+03   -0.64814E+00   -0.64636E+00 27384   0.101E+01
DAV:   5    -0.251042439344E+03   -0.10735E-01   -0.10722E-01 27144   0.127E+00    0.296E+01
RMM:   6    -0.226564193970E+03    0.24478E+02   -0.11294E+02 23232   0.316E+01    0.801E+00
RMM:   7    -0.226493174525E+03    0.71019E-01   -0.23052E+00 23232   0.391E+00    0.546E+00
RMM:   8    -0.226526606643E+03   -0.33432E-01   -0.63591E-01 23232   0.396E+00    0.112E+00
RMM:   9    -0.226502509451E+03    0.24097E-01   -0.24847E-01 23232   0.149E+00    0.292E-01
RMM:  10    -0.226502859985E+03   -0.35053E-03   -0.53194E-03 23245   0.251E-01    0.274E-01
RMM:  11    -0.226501173781E+03    0.16862E-02   -0.99187E-03 23232   0.308E-01    0.278E-02
RMM:  12    -0.226501166008E+03    0.77733E-05   -0.67395E-05 23232   0.316E-02    0.104E-02
RMM:  13    -0.226501164960E+03    0.10477E-05   -0.10171E-05 21412   0.108E-02    0.107E-03
RMM:  14    -0.226501165212E+03   -0.25237E-06   -0.59412E-07 13728   0.270E-03
   1 F= -.22650117E+03 E0= -.22650117E+03  d E =-.226501E+03
       N       E                     dE             d eps       ncg     rms          rms(c)
DAV:   1    -0.226503357628E+03   -0.21927E-02   -0.53712E-02 27056   0.912E-01    0.483E-02
RMM:   2    -0.226503515690E+03   -0.15806E-03   -0.17704E-03 23232   0.151E-01    0.338E-02
RMM:   3    -0.226503482943E+03    0.32747E-04   -0.66872E-05 23232   0.273E-02    0.157E-02
RMM:   4    -0.226503478063E+03    0.48802E-05   -0.37429E-05 23232   0.176E-02    0.403E-03
RMM:   5    -0.226503478214E+03   -0.15120E-06   -0.28804E-06 13898   0.539E-03
   2 F= -.22650348E+03 E0= -.22650348E+03  d E =-.231300E-02
       N       E                     dE             d eps       ncg     rms          rms(c)
DAV:   1    -0.226504133566E+03   -0.65550E-03   -0.45037E-02 25480   0.836E-01    0.443E-02
RMM:   2    -0.226504234917E+03   -0.10135E-03   -0.12788E-03 23232   0.133E-01    0.206E-03
RMM:   3    -0.226504230708E+03    0.42099E-05   -0.17661E-05 23144   0.140E-02    0.561E-04
RMM:   4    -0.226504230814E+03   -0.10641E-06   -0.72072E-07 13679   0.304E-03
   3 F= -.22650423E+03 E0= -.22650423E+03  d E =-.306560E-02
       N       E                     dE             d eps       ncg     rms          rms(c)
DAV:   1    -0.226504234338E+03   -0.36306E-05   -0.22130E-04 27160   0.585E-02    0.303E-03
RMM:   2    -0.226504234790E+03   -0.45214E-06   -0.62500E-06 19446   0.937E-03    0.114E-04
RMM:   3    -0.226504234786E+03    0.44398E-08   -0.15009E-07 11526   0.146E-03    0.167E-04
RMM:   4    -0.226504234789E+03   -0.30032E-08   -0.94515E-09  4145   0.674E-04
   4 F= -.22650423E+03 E0= -.22650423E+03  d E =-.306958E-02
       N       E                     dE             d eps       ncg     rms          rms(c)
DAV:   1    -0.226504352215E+03   -0.11743E-03   -0.65117E-02 25088   0.103E+00    0.331E-02
RMM:   2    -0.226504484486E+03   -0.13227E-03   -0.16052E-03 23232   0.147E-01    0.269E-02
RMM:   3    -0.226504478021E+03    0.64645E-05   -0.52379E-05 23232   0.239E-02    0.289E-02
RMM:   4    -0.226504480183E+03   -0.21616E-05   -0.13052E-04 23232   0.355E-02    0.314E-02
RMM:   5    -0.226504459159E+03    0.21024E-04   -0.81241E-05 23232   0.280E-02    0.704E-03
RMM:   6    -0.226504458923E+03    0.23549E-06   -0.74719E-07 13727   0.297E-03
   5 F= -.22650446E+03 E0= -.22650446E+03  d E =-.224134E-03
       N       E                     dE             d eps       ncg     rms          rms(c)
DAV:   1    -0.226504461199E+03   -0.20398E-05   -0.33113E-03 26440   0.234E-01    0.770E-03
RMM:   2    -0.226504466824E+03   -0.56258E-05   -0.75459E-05 23232   0.323E-02    0.916E-04
RMM:   3    -0.226504466617E+03    0.20774E-06   -0.89262E-07 14018   0.322E-03    0.616E-04
RMM:   4    -0.226504466620E+03   -0.31805E-08   -0.10585E-07 10101   0.119E-03
   6 F= -.22650447E+03 E0= -.22650447E+03  d E =-.231831E-03
       N       E                     dE             d eps       ncg     rms          rms(c)
DAV:   1    -0.226504484026E+03   -0.17409E-04   -0.79739E-03 24728   0.359E-01    0.103E-02
RMM:   2    -0.226504499464E+03   -0.15438E-04   -0.16798E-04 23232   0.480E-02    0.966E-03
RMM:   3    -0.226504498206E+03    0.12574E-05   -0.86681E-06 22727   0.953E-03    0.601E-03
RMM:   4    -0.226504497714E+03    0.49234E-06   -0.93847E-07 13681   0.330E-03
   7 F= -.22650450E+03 E0= -.22650450E+03  d E =-.310942E-04
       N       E                     dE             d eps       ncg     rms          rms(c)
DAV:   1    -0.226504465236E+03    0.32970E-04   -0.31080E-02 24120   0.708E-01    0.204E-02
RMM:   2    -0.226504518604E+03   -0.53368E-04   -0.59408E-04 23232   0.916E-02    0.384E-03
RMM:   3    -0.226504517492E+03    0.11125E-05   -0.96002E-06 19012   0.930E-03    0.276E-03
RMM:   4    -0.226504517491E+03    0.13277E-08   -0.50523E-07 13720   0.241E-03
   8 F= -.22650452E+03 E0= -.22650452E+03  d E =-.508707E-04
       N       E                     dE             d eps       ncg     rms          rms(c)
DAV:   1    -0.226504516493E+03    0.99858E-06   -0.88268E-04 25472   0.119E-01    0.335E-03
RMM:   2    -0.226504518002E+03   -0.15082E-05   -0.16897E-05 22581   0.155E-02    0.324E-04
RMM:   3    -0.226504517965E+03    0.36588E-07   -0.21038E-07 10170   0.161E-03    0.216E-04
RMM:   4    -0.226504517964E+03    0.53168E-09   -0.22933E-08  4629   0.738E-04
   9 F= -.22650452E+03 E0= -.22650452E+03  d E =-.513445E-04
       N       E                     dE             d eps       ncg     rms          rms(c)
DAV:   1    -0.226504517932E+03    0.32892E-07   -0.32306E-05 24248   0.229E-02    0.728E-04
RMM:   2    -0.226504517988E+03   -0.55488E-07   -0.62111E-07 11980   0.309E-03    0.104E-04
RMM:   3    -0.226504517992E+03   -0.43960E-08   -0.20443E-08  4293   0.756E-04    0.561E-05
RMM:   4    -0.226504517993E+03   -0.11368E-08   -0.62792E-11  1306   0.522E-04
  10 F= -.22650452E+03 E0= -.22650452E+03  d E =-.513732E-04
       N       E                     dE             d eps       ncg     rms          rms(c)
DAV:   1    -0.226504517984E+03    0.76782E-08   -0.45325E-06 21416   0.862E-03    0.277E-04
RMM:   2    -0.226504517986E+03   -0.13733E-08   -0.72788E-08  7763   0.117E-03    0.126E-04
RMM:   3    -0.226504517986E+03   -0.26532E-09   -0.26121E-11   697   0.513E-04    0.867E-05
RMM:   4    -0.226504517987E+03   -0.97197E-09   -0.64079E-11   556   0.518E-04
  11 F= -.22650452E+03 E0= -.22650452E+03  d E =-.513670E-04
       N       E                     dE             d eps       ncg     rms          rms(c)
DAV:   1    -0.226504519540E+03   -0.15537E-05   -0.48620E-04 24392   0.887E-02    0.323E-03
RMM:   2    -0.226504520964E+03   -0.14239E-05   -0.13199E-05 23193   0.132E-02    0.571E-03
RMM:   3    -0.226504520539E+03    0.42445E-06   -0.20288E-06 12793   0.477E-03    0.132E-03
RMM:   4    -0.226504520649E+03   -0.10961E-06   -0.42137E-07 12014   0.219E-03
  12 F= -.22650452E+03 E0= -.22650452E+03  d E =-.266188E-05
       N       E                     dE             d eps       ncg     rms          rms(c)
DAV:   1    -0.226504520561E+03   -0.21966E-07   -0.42288E-05 24592   0.261E-02    0.104E-03
RMM:   2    -0.226504520663E+03   -0.10161E-06   -0.88864E-07 12034   0.373E-03    0.695E-04
RMM:   3    -0.226504520642E+03    0.20797E-07   -0.55422E-08  7295   0.105E-03    0.459E-04
RMM:   4    -0.226504520613E+03    0.29022E-07   -0.10748E-07  9447   0.111E-03
  13 F= -.22650452E+03 E0= -.22650452E+03  d E =-.262602E-05
       N       E                     dE             d eps       ncg     rms          rms(c)
DAV:   1    -0.226504520608E+03    0.34364E-07   -0.43541E-07 14120   0.274E-03    0.285E-04
RMM:   2    -0.226504520612E+03   -0.39819E-08   -0.58367E-09  2817   0.752E-04    0.176E-04
RMM:   3    -0.226504520618E+03   -0.62346E-08   -0.15045E-08  3661   0.779E-04    0.977E-05
RMM:   4    -0.226504520615E+03    0.32272E-08    0.00000E+00   633   0.570E-04
  14 F= -.22650452E+03 E0= -.22650452E+03  d E =-.262767E-05
       N       E                     dE             d eps       ncg     rms          rms(c)
DAV:   1    -0.226504520578E+03    0.39978E-07   -0.24153E-05 22728   0.205E-02    0.886E-04
RMM:   2    -0.226504520652E+03   -0.74100E-07   -0.75445E-07 11805   0.333E-03    0.775E-04
RMM:   3    -0.226504520681E+03   -0.29158E-07   -0.92395E-08 11543   0.115E-03    0.105E-03
RMM:   4    -0.226504520643E+03    0.37904E-07   -0.28594E-07 11709   0.173E-03
  15 F= -.22650452E+03 E0= -.22650452E+03  d E =-.286038E-07
       N       E                     dE             d eps       ncg     rms          rms(c)
DAV:   1    -0.226504520685E+03   -0.37936E-08   -0.99279E-07 13296   0.429E-03    0.375E-04
RMM:   2    -0.226504520685E+03   -0.41035E-09   -0.69483E-08 11580   0.122E-03    0.102E-04
RMM:   3    -0.226504520683E+03    0.19338E-08    0.00000E+00   750   0.331E-04    0.644E-05
RMM:   4    -0.226504520681E+03    0.21605E-08    0.00000E+00   504   0.353E-04
  16 F= -.22650452E+03 E0= -.22650452E+03  d E =-.666172E-07
       N       E                     dE             d eps       ncg     rms          rms(c)
DAV:   1    -0.226504520670E+03    0.13087E-07   -0.91814E-08 13328   0.132E-03    0.108E-04
RMM:   2    -0.226504520672E+03   -0.16671E-08    0.00000E+00  1391   0.327E-04    0.744E-05
RMM:   3    -0.226504520672E+03   -0.33626E-09    0.00000E+00   424   0.353E-04    0.418E-05
RMM:   4    -0.226504520672E+03   -0.16655E-09    0.00000E+00   311   0.375E-04
  17 F= -.22650452E+03 E0= -.22650452E+03  d E =-.578604E-07
       N       E                     dE             d eps       ncg     rms          rms(c)
DAV:   1    -0.226504520678E+03   -0.53926E-08   -0.28567E-08 13104   0.658E-04    0.946E-05
RMM:   2    -0.226504520675E+03    0.21864E-08    0.00000E+00   901   0.172E-04    0.326E-05
RMM:   3    -0.226504520675E+03    0.74124E-10    0.00000E+00   266   0.191E-04    0.111E-05
RMM:   4    -0.226504520676E+03   -0.61874E-09    0.00000E+00   212   0.194E-04
  18 F= -.22650452E+03 E0= -.22650452E+03  d E =-.614446E-07
       N       E                     dE             d eps       ncg     rms          rms(c)
DAV:   1    -0.226504520663E+03    0.12670E-07   -0.10811E-05 22144   0.134E-02    0.478E-04
RMM:   2    -0.226504520664E+03   -0.15516E-08   -0.28379E-07 11690   0.206E-03    0.627E-04
RMM:   3    -0.226504520673E+03   -0.91011E-08   -0.32897E-09  2506   0.712E-04    0.389E-04
RMM:   4    -0.226504520696E+03   -0.22723E-07   -0.49290E-08  7510   0.877E-04
  19 F= -.22650452E+03 E0= -.22650452E+03  d E =-.200870E-07
       N       E                     dE             d eps       ncg     rms          rms(c)
DAV:   1    -0.226504520688E+03   -0.15107E-07   -0.61120E-07 12888   0.320E-03    0.191E-04
RMM:   2    -0.226504520683E+03    0.53726E-08   -0.12323E-08  3597   0.813E-04    0.834E-05
RMM:   3    -0.226504520685E+03   -0.16068E-08   -0.54475E-10   357   0.580E-04    0.532E-05
RMM:   4    -0.226504520686E+03   -0.99345E-09   -0.22704E-09   833   0.593E-04
  20 F= -.22650452E+03 E0= -.22650452E+03  d E =-.969891E-08
       N       E                     dE             d eps       ncg     rms          rms(c)
DAV:   1    -0.226504520684E+03    0.85379E-09   -0.25047E-07 12856   0.200E-03    0.138E-04
RMM:   2    -0.226504520687E+03   -0.29703E-08    0.00000E+00   376   0.474E-04    0.726E-05
RMM:   3    -0.226504520688E+03   -0.13446E-08    0.00000E+00   190   0.497E-04    0.466E-05
RMM:   4    -0.226504520685E+03    0.26414E-08    0.00000E+00   174   0.491E-04
  21 F= -.22650452E+03 E0= -.22650452E+03  d E =-.952514E-08
       N       E                     dE             d eps       ncg     rms          rms(c)
DAV:   1    -0.226504520686E+03    0.18087E-08   -0.76292E-08 12704   0.106E-03    0.854E-05
RMM:   2    -0.226504520685E+03    0.12228E-08    0.00000E+00   305   0.289E-04    0.235E-05
RMM:   3    -0.226504520685E+03    0.45054E-09    0.00000E+00   178   0.283E-04    0.112E-05
RMM:   4    -0.226504520685E+03   -0.10181E-09    0.00000E+00   152   0.281E-04
  22 F= -.22650452E+03 E0= -.22650452E+03  d E =-.878623E-08
       N       E                     dE             d eps       ncg     rms          rms(c)
DAV:   1    -0.226504520685E+03   -0.42075E-09   -0.15086E-08 12896   0.472E-04    0.480E-05
RMM:   2    -0.226504520686E+03   -0.54141E-09    0.00000E+00   296   0.141E-04    0.943E-06
RMM:   3    -0.226504520686E+03    0.60510E-10    0.00000E+00   168   0.140E-04    0.404E-06
RMM:   4    -0.226504520685E+03    0.39648E-09    0.00000E+00   142   0.141E-04
  23 F= -.22650452E+03 E0= -.22650452E+03  d E =-.918959E-08
       N       E                     dE             d eps       ncg     rms          rms(c)
DAV:   1    -0.226504520685E+03    0.37682E-09   -0.31525E-09 12632   0.225E-04    0.267E-05
RMM:   2    -0.226504520685E+03   -0.14660E-09    0.00000E+00   256   0.729E-05    0.459E-06
RMM:   3    -0.226504520685E+03   -0.16485E-11    0.00000E+00   144   0.727E-05    0.179E-06
RMM:   4    -0.226504520685E+03   -0.47777E-10    0.00000E+00   121   0.727E-05
  24 F= -.22650452E+03 E0= -.22650452E+03  d E =-.940528E-08
       N       E                     dE             d eps       ncg     rms          rms(c)
DAV:   1    -0.226504520685E+03   -0.21316E-10   -0.14282E-10 12448   0.511E-05    0.107E-05
RMM:   2    -0.226504520685E+03    0.12096E-09    0.00000E+00   230   0.142E-05    0.145E-06
RMM:   3    -0.226504520685E+03   -0.53603E-10    0.00000E+00   130   0.145E-05    0.886E-07
RMM:   4    -0.226504520685E+03   -0.59117E-11    0.00000E+00   116   0.145E-05
  25 F= -.22650452E+03 E0= -.22650452E+03  d E =-.931738E-08
       N       E                     dE             d eps       ncg     rms          rms(c)
DAV:   1    -0.226504520685E+03    0.71338E-11   -0.35316E-11 12280   0.280E-05    0.289E-06
RMM:   2    -0.226504520685E+03   -0.66535E-10    0.00000E+00   183   0.941E-06    0.822E-07
RMM:   3    -0.226504520685E+03    0.81286E-11    0.00000E+00   117   0.964E-06    0.206E-07
RMM:   4    -0.226504520685E+03   -0.13074E-11    0.00000E+00   106   0.961E-06
  26 F= -.22650452E+03 E0= -.22650452E+03  d E =-.936404E-08
       N       E                     dE             d eps       ncg     rms          rms(c)
DAV:   1    -0.226504520693E+03   -0.76546E-08   -0.54070E-06 20880   0.941E-03    0.329E-04
RMM:   2    -0.226504520705E+03   -0.12327E-07   -0.15164E-07 11377   0.150E-03    0.533E-04
RMM:   3    -0.226504520692E+03    0.13343E-07   -0.70191E-08  7689   0.968E-04    0.358E-04
RMM:   4    -0.226504520705E+03   -0.13152E-07    0.00000E+00   122   0.471E-04
  27 F= -.22650452E+03 E0= -.22650452E+03  d E =-.197888E-07
       N       E                     dE             d eps       ncg     rms          rms(c)
DAV:   1    -0.226504520710E+03   -0.18040E-07   -0.75955E-08 12432   0.108E-03    0.109E-04
RMM:   2    -0.226504520706E+03    0.43282E-08    0.00000E+00   292   0.272E-04    0.513E-05
RMM:   3    -0.226504520706E+03   -0.79018E-09    0.00000E+00   111   0.277E-04    0.420E-05
RMM:   4    -0.226504520705E+03    0.18388E-08    0.00000E+00    99   0.289E-04
  28 F= -.22650452E+03 E0= -.22650452E+03  d E =-.193000E-07
