AlO                                     
           1
     4.802777    0.024014    0.000000
    -2.380592    4.147320    0.000000
     0.000000    0.000000   13.233653
   Al   O 
  12  18
Direct configuration=     1
   0.00000000  0.00000000  0.35221672
   0.00000000  0.00000000  0.64778325
   0.00000000  0.00000000  0.14778328
   0.00000000  0.00000000  0.85221675
   0.66666669  0.33333334  0.68555007
   0.66666669  0.33333334  0.98111662
   0.66666669  0.33333334  0.48111662
   0.66666669  0.33333334  0.18555001
   0.33333334  0.66666669  0.01888338
   0.33333334  0.66666669  0.31444993
   0.33333334  0.66666669  0.81444993
   0.33333334  0.66666669  0.51888338
   0.30611761  0.00000000  0.25000000
   0.69388239  0.00000000  0.75000000
   0.00000000  0.30611761  0.25000000
   0.00000000  0.69388239  0.75000000
   0.69388239  0.69388239  0.25000000
   0.30611761  0.30611761  0.75000000
   0.97278430  0.33333334  0.58333331
   0.36054904  0.33333334  0.08333334
   0.66666669  0.63945093  0.58333331
   0.66666669  0.02721572  0.08333334
   0.36054904  0.02721572  0.58333331
   0.97278430  0.63945093  0.08333334
   0.63945093  0.66666669  0.91666669
   0.02721572  0.66666669  0.41666666
   0.33333334  0.97278430  0.91666669
   0.33333334  0.36054904  0.41666666
   0.02721572  0.36054904  0.91666669
   0.63945093  0.97278430  0.41666666
Direct configuration=     2
  -0.00029202  0.00021943  0.35209796
   0.00029202 -0.00021943  0.64790201
   0.00049274  0.00020855  0.14790198
  -0.00049274 -0.00020855  0.85209805
   0.66637467  0.33355277  0.68543130
   0.66695871  0.33311391  0.98123538
   0.66715943  0.33354189  0.48123533
   0.66617394  0.33312479  0.18543130
   0.33304132  0.66688612  0.01876462
   0.33362536  0.66644726  0.31456870
   0.33382609  0.66687524  0.81456864
   0.33284060  0.66645814  0.51876467
   0.30617907 -0.00001142  0.24994845
   0.69382093  0.00001142  0.75005155
  -0.00001445  0.30623058  0.25002458
   0.00001445  0.69376942  0.74997542
   0.69385617  0.69385918  0.25002694
   0.30614383  0.30614082  0.74997306
   0.97284576  0.33332192  0.58328176
   0.36048758  0.33334477  0.08338488
   0.66665224  0.63956390  0.58335789
   0.66668114  0.02710275  0.08330876
   0.36052282  0.02719252  0.58336025
   0.97281052  0.63947413  0.08330640
   0.63951239  0.66665526  0.91661514
   0.02715426  0.66667811  0.41671821
   0.33331889  0.97289727  0.91669127
   0.33334779  0.36043607  0.41664208
   0.02718950  0.36052584  0.91669363
   0.63947715  0.97280750  0.41663972
Direct configuration=     3
  -0.00055914  0.00042015  0.35198932
   0.00055914 -0.00042015  0.64801065
   0.00094347  0.00039932  0.14801057
  -0.00094347 -0.00039932  0.85198946
   0.66610755  0.33375349  0.68532266
   0.66722583  0.33291320  0.98134402
   0.66761016  0.33373266  0.48134391
   0.66572322  0.33293403  0.18532271
   0.33277420  0.66708683  0.01865598
   0.33389248  0.66624654  0.31467734
   0.33427681  0.66706600  0.81467723
   0.33238987  0.66626737  0.51865609
   0.30623530 -0.00002187  0.24990130
   0.69376470  0.00002187  0.75009870
  -0.00002767  0.30633392  0.25004706
   0.00002767  0.69366608  0.74995294
   0.69383218  0.69383796  0.25005158
   0.30616782  0.30616204  0.74994842
   0.97290198  0.33331147  0.58323461
   0.36043136  0.33335521  0.08343204
   0.66663902  0.63966724  0.58338038
   0.66669436  0.02699941  0.08328627
   0.36049884  0.02717129  0.58338489
   0.97283451  0.63949535  0.08328176
   0.63956861  0.66664482  0.91656799
   0.02709804  0.66668856  0.41676536
   0.33330567  0.97300061  0.91671375
   0.33336101  0.36033274  0.41661959
   0.02716551  0.36050462  0.91671827
   0.63950113  0.97282873  0.41661508
Direct configuration=     4
  -0.00057785  0.00043421  0.35198171
   0.00057785 -0.00043421  0.64801826
   0.00097504  0.00041268  0.14801818
  -0.00097504 -0.00041268  0.85198185
   0.66608884  0.33376755  0.68531506
   0.66724454  0.33289914  0.98135163
   0.66764173  0.33374602  0.48135152
   0.66569165  0.33292067  0.18531511
   0.33275549  0.66710089  0.01864837
   0.33391119  0.66623248  0.31468494
   0.33430838  0.66707936  0.81468483
   0.33235830  0.66625401  0.51864848
   0.30623923 -0.00002260  0.24989800
   0.69376077  0.00002260  0.75010200
  -0.00002860  0.30634116  0.25004864
   0.00002860  0.69365884  0.74995136
   0.69383050  0.69383647  0.25005331
   0.30616950  0.30616353  0.74994669
   0.97290592  0.33331074  0.58323131
   0.36042742  0.33335595  0.08343534
   0.66663809  0.63967447  0.58338195
   0.66669528  0.02699217  0.08328470
   0.36049716  0.02716981  0.58338662
   0.97283619  0.63949684  0.08328003
   0.63957255  0.66664408  0.91656468
   0.02709410  0.66668929  0.41676866
   0.33330475  0.97300785  0.91671533
   0.33336194  0.36032550  0.41661802
   0.02716383  0.36050313  0.91671999
   0.63950281  0.97283021  0.41661335
Direct configuration=     5
  -0.00060321  0.00039542  0.35194706
   0.00060321 -0.00039542  0.64805291
   0.00099326  0.00039666  0.14805283
  -0.00099326 -0.00039666  0.85194720
   0.66606348  0.33372877  0.68528040
   0.66726989  0.33293792  0.98138628
   0.66765995  0.33373001  0.48138617
   0.66567343  0.33293668  0.18528045
   0.33273014  0.66706211  0.01861372
   0.33393655  0.66627126  0.31471960
   0.33432660  0.66706335  0.81471949
   0.33234008  0.66627002  0.51861383
   0.30614929 -0.00026655  0.24990605
   0.69385071  0.00026655  0.75009395
  -0.00014645  0.30639133  0.25004564
   0.00014645  0.69360867  0.74995436
   0.69394355  0.69382340  0.25004824
   0.30605645  0.30617660  0.74995176
   0.97281598  0.33306679  0.58323937
   0.36051737  0.33359989  0.08342728
   0.66652024  0.63972465  0.58337895
   0.66681314  0.02694200  0.08328770
   0.36061021  0.02715674  0.58338155
   0.97272314  0.63950991  0.08328510
   0.63948260  0.66640014  0.91657274
   0.02718404  0.66693324  0.41676060
   0.33318689  0.97305802  0.91671232
   0.33347979  0.36027532  0.41662102
   0.02727688  0.36049006  0.91671493
   0.63938976  0.97284328  0.41661842
Direct configuration=     6
  -0.00060892  0.00038668  0.35193925
   0.00060892 -0.00038668  0.64806072
   0.00099737  0.00039305  0.14806064
  -0.00099737 -0.00039305  0.85193939
   0.66605777  0.33372002  0.68527259
   0.66727561  0.33294666  0.98139409
   0.66766405  0.33372640  0.48139399
   0.66566932  0.33294029  0.18527264
   0.33272442  0.66705337  0.01860591
   0.33394226  0.66628001  0.31472741
   0.33433071  0.66705974  0.81472730
   0.33233598  0.66627363  0.51860601
   0.30612902 -0.00032153  0.24990787
   0.69387098  0.00032153  0.75009213
  -0.00017301  0.30640264  0.25004496
   0.00017301  0.69359736  0.74995504
   0.69396903  0.69382046  0.25004710
   0.30603097  0.30617954  0.74995290
   0.97279570  0.33301181  0.58324118
   0.36053764  0.33365488  0.08342546
   0.66649367  0.63973595  0.58337827
   0.66683970  0.02693069  0.08328838
   0.36063569  0.02715379  0.58338041
   0.97269766  0.63951286  0.08328624
   0.63946233  0.66634515  0.91657456
   0.02720432  0.66698822  0.41675879
   0.33316033  0.97306933  0.91671165
   0.33350636  0.36026402  0.41662170
   0.02730237  0.36048711  0.91671378
   0.63936428  0.97284623  0.41661956
Direct configuration=     7
  -0.00060281  0.00037662  0.35193573
   0.00060281 -0.00037662  0.64806424
   0.00097529  0.00038580  0.14806406
  -0.00097529 -0.00038580  0.85193597
   0.66606388  0.33370997  0.68526908
   0.66726949  0.33295672  0.98139761
   0.66764198  0.33371914  0.48139740
   0.66569140  0.33294754  0.18526922
   0.33273054  0.66704331  0.01860239
   0.33393615  0.66629006  0.31473092
   0.33430863  0.66705249  0.81473072
   0.33235805  0.66628089  0.51860260
   0.30610985 -0.00036151  0.24988070
   0.69389015  0.00036151  0.75011930
  -0.00019191  0.30639726  0.25005832
   0.00019191  0.69360274  0.74994168
   0.69397926  0.69380958  0.25006095
   0.30602074  0.30619042  0.74993905
   0.97277654  0.33297183  0.58321401
   0.36055681  0.33369485  0.08345264
   0.66647477  0.63973057  0.58339163
   0.66685860  0.02693608  0.08327502
   0.36064592  0.02714291  0.58339426
   0.97268742  0.63952374  0.08327239
   0.63944317  0.66630518  0.91654739
   0.02722348  0.66702820  0.41678596
   0.33314143  0.97306394  0.91672500
   0.33352526  0.36026940  0.41660834
   0.02731260  0.36047623  0.91672763
   0.63935405  0.97285711  0.41660571
Direct configuration=     8
  -0.00059072  0.00035674  0.35192877
   0.00059072 -0.00035674  0.64807120
   0.00093164  0.00037147  0.14807081
  -0.00093164 -0.00037147  0.85192922
   0.66607597  0.33369008  0.68526212
   0.66725740  0.33297660  0.98140457
   0.66759833  0.33370481  0.48140416
   0.66573504  0.33296188  0.18526247
   0.33274263  0.66702343  0.01859543
   0.33392406  0.66630995  0.31473788
   0.33426499  0.66703815  0.81473747
   0.33240170  0.66629522  0.51859584
   0.30607196 -0.00044054  0.24982698
   0.69392804  0.00044054  0.75017302
  -0.00022928  0.30638661  0.25008473
   0.00022928  0.69361339  0.74991527
   0.69399949  0.69378807  0.25008833
   0.30600051  0.30621193  0.74991167
   0.97273865  0.33289280  0.58316030
   0.36059470  0.33377388  0.08350635
   0.66643741  0.63971993  0.58341804
   0.66689597  0.02694672  0.08324861
   0.36066615  0.02712140  0.58342164
   0.97266719  0.63954525  0.08324501
   0.63940527  0.66622615  0.91649367
   0.02726137  0.66710723  0.41683967
   0.33310406  0.97305330  0.91675141
   0.33356262  0.36028004  0.41658193
   0.02733283  0.36045473  0.91675502
   0.63933382  0.97287862  0.41657833
Direct configuration=     9
  -0.00059275  0.00036009  0.35192994
   0.00059275 -0.00036009  0.64807003
   0.00093899  0.00037388  0.14806968
  -0.00093899 -0.00037388  0.85193035
   0.66607394  0.33369343  0.68526329
   0.66725944  0.33297326  0.98140340
   0.66760567  0.33370722  0.48140302
   0.66572770  0.33295946  0.18526361
   0.33274059  0.66702677  0.01859660
   0.33392609  0.66630660  0.31473671
   0.33427233  0.66704057  0.81473634
   0.33239436  0.66629281  0.51859698
   0.30607834 -0.00042725  0.24983602
   0.69392166  0.00042725  0.75016398
  -0.00022299  0.30638841  0.25008028
   0.00022299  0.69361159  0.74991972
   0.69399609  0.69379169  0.25008372
   0.30600391  0.30620831  0.74991628
   0.97274502  0.33290610  0.58316934
   0.36058832  0.33376059  0.08349731
   0.66644369  0.63972172  0.58341360
   0.66688968  0.02694493  0.08325305
   0.36066275  0.02712502  0.58341703
   0.97267060  0.63954163  0.08324961
   0.63941165  0.66623944  0.91650271
   0.02725500  0.66709393  0.41683063
   0.33311035  0.97305509  0.91674697
   0.33355634  0.36027825  0.41658637
   0.02732942  0.36045834  0.91675041
   0.63933722  0.97287500  0.41658294
Direct configuration=    10
  -0.00059236  0.00035944  0.35192972
   0.00059236 -0.00035944  0.64807025
   0.00093758  0.00037342  0.14806990
  -0.00093758 -0.00037342  0.85193013
   0.66607433  0.33369279  0.68526306
   0.66725905  0.33297390  0.98140362
   0.66760426  0.33370676  0.48140324
   0.66572911  0.33295993  0.18526339
   0.33274098  0.66702613  0.01859638
   0.33392570  0.66630724  0.31473694
   0.33427092  0.66704010  0.81473655
   0.33239577  0.66629327  0.51859676
   0.30607711 -0.00042980  0.24983429
   0.69392289  0.00042980  0.75016571
  -0.00022420  0.30638806  0.25008114
   0.00022420  0.69361194  0.74991886
   0.69399674  0.69379099  0.25008461
   0.30600326  0.30620901  0.74991539
   0.97274380  0.33290355  0.58316760
   0.36058955  0.33376314  0.08349905
   0.66644249  0.63972138  0.58341445
   0.66689089  0.02694527  0.08325220
   0.36066340  0.02712433  0.58341792
   0.97266994  0.63954232  0.08324873
   0.63941043  0.66623689  0.91650097
   0.02725622  0.66709648  0.41683237
   0.33310914  0.97305475  0.91674782
   0.33355754  0.36027860  0.41658552
   0.02733008  0.36045765  0.91675129
   0.63933657  0.97287569  0.41658205
Direct configuration=    11
  -0.00059251  0.00035969  0.35192981
   0.00059251 -0.00035969  0.64807016
   0.00093811  0.00037359  0.14806981
  -0.00093811 -0.00037359  0.85193022
   0.66607418  0.33369303  0.68526315
   0.66725919  0.33297366  0.98140354
   0.66760480  0.33370693  0.48140316
   0.66572858  0.33295975  0.18526347
   0.33274084  0.66702637  0.01859646
   0.33392585  0.66630700  0.31473685
   0.33427145  0.66704028  0.81473647
   0.33239523  0.66629310  0.51859684
   0.30607757 -0.00042883  0.24983494
   0.69392243  0.00042883  0.75016506
  -0.00022374  0.30638819  0.25008081
   0.00022374  0.69361181  0.74991919
   0.69399650  0.69379126  0.25008427
   0.30600350  0.30620874  0.74991573
   0.97274426  0.33290451  0.58316826
   0.36058908  0.33376218  0.08349839
   0.66644294  0.63972151  0.58341413
   0.66689043  0.02694514  0.08325252
   0.36066315  0.02712459  0.58341758
   0.97267019  0.63954206  0.08324906
   0.63941089  0.66623785  0.91650163
   0.02725576  0.66709552  0.41683171
   0.33310960  0.97305488  0.91674750
   0.33355709  0.36027847  0.41658584
   0.02732983  0.36045791  0.91675096
   0.63933682  0.97287543  0.41658239
Direct configuration=    12
  -0.00060242  0.00035787  0.35193689
   0.00060242 -0.00035787  0.64806308
   0.00095538  0.00037040  0.14806268
  -0.00095538 -0.00037040  0.85193735
   0.66606427  0.33369121  0.68527024
   0.66726911  0.33297547  0.98139645
   0.66762206  0.33370374  0.48139602
   0.66571131  0.33296295  0.18527060
   0.33273092  0.66702456  0.01860355
   0.33393576  0.66630882  0.31472976
   0.33428872  0.66703708  0.81472934
   0.33237797  0.66629629  0.51860398
   0.30606710 -0.00044505  0.24983051
   0.69393290  0.00044505  0.75016949
  -0.00023025  0.30637661  0.25008294
   0.00023025  0.69362339  0.74991706
   0.69400414  0.69378921  0.25008634
   0.30599586  0.30621079  0.74991366
   0.97273379  0.33288830  0.58316382
   0.36059955  0.33377839  0.08350283
   0.66643644  0.63970993  0.58341625
   0.66689693  0.02695672  0.08325040
   0.36067080  0.02712254  0.58341965
   0.97266255  0.63954411  0.08324700
   0.63940042  0.66622164  0.91649719
   0.02726623  0.66711173  0.41683615
   0.33310310  0.97304330  0.91674963
   0.33356359  0.36029004  0.41658372
   0.02733748  0.36045586  0.91675302
   0.63932917  0.97287748  0.41658032
Direct configuration=    13
  -0.00060532  0.00035734  0.35193897
   0.00060532 -0.00035734  0.64806100
   0.00096043  0.00036946  0.14806059
  -0.00096043 -0.00036946  0.85193944
   0.66606137  0.33369068  0.68527231
   0.66727201  0.33297600  0.98139438
   0.66762712  0.33370280  0.48139393
   0.66570625  0.33296388  0.18527269
   0.33272802  0.66702403  0.01860562
   0.33393866  0.66630935  0.31472769
   0.33429378  0.66703615  0.81472725
   0.33237291  0.66629723  0.51860607
   0.30606404 -0.00044979  0.24982921
   0.69393596  0.00044979  0.75017079
  -0.00023215  0.30637322  0.25008356
   0.00023215  0.69362678  0.74991644
   0.69400638  0.69378861  0.25008694
   0.30599362  0.30621139  0.74991306
   0.97273072  0.33288355  0.58316252
   0.36060262  0.33378314  0.08350413
   0.66643454  0.63970654  0.58341687
   0.66689884  0.02696011  0.08324977
   0.36067304  0.02712194  0.58342025
   0.97266031  0.63954471  0.08324640
   0.63939735  0.66621689  0.91649589
   0.02726930  0.66711648  0.41683745
   0.33310119  0.97303991  0.91675025
   0.33356549  0.36029343  0.41658310
   0.02733971  0.36045526  0.91675363
   0.63932693  0.97287808  0.41657972
Direct configuration=    14
  -0.00060562  0.00035728  0.35193918
   0.00060562 -0.00035728  0.64806079
   0.00096095  0.00036937  0.14806038
  -0.00096095 -0.00036937  0.85193965
   0.66606107  0.33369063  0.68527252
   0.66727230  0.33297606  0.98139416
   0.66762764  0.33370271  0.48139372
   0.66570574  0.33296398  0.18527291
   0.33272773  0.66702397  0.01860584
   0.33393896  0.66630940  0.31472748
   0.33429429  0.66703605  0.81472703
   0.33237239  0.66629732  0.51860628
   0.30606372 -0.00045028  0.24982907
   0.69393628  0.00045028  0.75017093
  -0.00023234  0.30637288  0.25008362
   0.00023234  0.69362712  0.74991638
   0.69400661  0.69378855  0.25008700
   0.30599339  0.30621145  0.74991300
   0.97273041  0.33288306  0.58316239
   0.36060293  0.33378362  0.08350426
   0.66643434  0.63970619  0.58341694
   0.66689903  0.02696046  0.08324971
   0.36067327  0.02712188  0.58342031
   0.97266008  0.63954477  0.08324633
   0.63939704  0.66621641  0.91649576
   0.02726961  0.66711697  0.41683758
   0.33310100  0.97303956  0.91675031
   0.33356569  0.36029378  0.41658303
   0.02733994  0.36045520  0.91675369
   0.63932670  0.97287814  0.41657966
Direct configuration=    15
  -0.00060341  0.00036627  0.35194063
   0.00060341 -0.00036627  0.64805934
   0.00096059  0.00037630  0.14805895
  -0.00096059 -0.00037630  0.85194108
   0.66606328  0.33369962  0.68527397
   0.66727010  0.33296707  0.98139271
   0.66762728  0.33370964  0.48139229
   0.66570609  0.33295705  0.18527433
   0.33272993  0.66703296  0.01860729
   0.33393675  0.66630041  0.31472603
   0.33429394  0.66704298  0.81472561
   0.33237275  0.66629039  0.51860771
   0.30606129 -0.00045473  0.24982895
   0.69393871  0.00045473  0.75017105
  -0.00023551  0.30637140  0.25008334
   0.00023551  0.69362860  0.74991666
   0.69400854  0.69378960  0.25008774
   0.30599146  0.30621040  0.74991226
   0.97272798  0.33287861  0.58316226
   0.36060536  0.33378808  0.08350439
   0.66643118  0.63970471  0.58341666
   0.66690219  0.02696194  0.08324999
   0.36067520  0.02712293  0.58342106
   0.97265814  0.63954371  0.08324559
   0.63939461  0.66621195  0.91649563
   0.02727204  0.66712142  0.41683771
   0.33309784  0.97303808  0.91675003
   0.33356885  0.36029526  0.41658331
   0.02734188  0.36045626  0.91675443
   0.63932477  0.97287709  0.41657891
Direct configuration=    16
  -0.00060387  0.00036441  0.35194033
   0.00060387 -0.00036441  0.64805964
   0.00096067  0.00037486  0.14805924
  -0.00096067 -0.00037486  0.85194079
   0.66606282  0.33369776  0.68527367
   0.66727056  0.33296893  0.98139301
   0.66762736  0.33370821  0.48139259
   0.66570602  0.33295848  0.18527404
   0.33272947  0.66703110  0.01860699
   0.33393721  0.66630227  0.31472633
   0.33429401  0.66704155  0.81472590
   0.33237267  0.66629182  0.51860741
   0.30606180 -0.00045381  0.24982897
   0.69393820  0.00045381  0.75017103
  -0.00023485  0.30637170  0.25008340
   0.00023485  0.69362830  0.74991660
   0.69400814  0.69378938  0.25008759
   0.30599186  0.30621062  0.74991241
   0.97272848  0.33287953  0.58316229
   0.36060486  0.33378715  0.08350436
   0.66643183  0.63970502  0.58341672
   0.66690154  0.02696163  0.08324993
   0.36067480  0.02712272  0.58342090
   0.97265854  0.63954393  0.08324575
   0.63939511  0.66621288  0.91649566
   0.02727154  0.66712050  0.41683768
   0.33309849  0.97303839  0.91675009
   0.33356820  0.36029495  0.41658325
   0.02734148  0.36045604  0.91675428
   0.63932517  0.97287730  0.41657907
Direct configuration=    17
  -0.00060371  0.00036505  0.35194043
   0.00060371 -0.00036505  0.64805954
   0.00096064  0.00037535  0.14805914
  -0.00096064 -0.00037535  0.85194089
   0.66606298  0.33369839  0.68527377
   0.66727040  0.33296829  0.98139291
   0.66762733  0.33370870  0.48139249
   0.66570604  0.33295799  0.18527414
   0.33272963  0.66703174  0.01860709
   0.33393705  0.66630164  0.31472623
   0.33429399  0.66704204  0.81472580
   0.33237270  0.66629133  0.51860751
   0.30606162 -0.00045413  0.24982896
   0.69393838  0.00045413  0.75017104
  -0.00023508  0.30637160  0.25008338
   0.00023508  0.69362840  0.74991662
   0.69400828  0.69378946  0.25008764
   0.30599172  0.30621054  0.74991236
   0.97272831  0.33287922  0.58316228
   0.36060503  0.33378747  0.08350437
   0.66643161  0.63970491  0.58341670
   0.66690176  0.02696174  0.08324995
   0.36067494  0.02712279  0.58342096
   0.97265841  0.63954386  0.08324569
   0.63939494  0.66621256  0.91649565
   0.02727171  0.66712081  0.41683769
   0.33309827  0.97303828  0.91675007
   0.33356842  0.36029506  0.41658327
   0.02734162  0.36045611  0.91675433
   0.63932503  0.97287723  0.41657901
Direct configuration=    18
  -0.00060379  0.00036474  0.35194038
   0.00060379 -0.00036474  0.64805959
   0.00096066  0.00037511  0.14805919
  -0.00096066 -0.00037511  0.85194084
   0.66606290  0.33369808  0.68527372
   0.66727047  0.33296860  0.98139296
   0.66762734  0.33370846  0.48139254
   0.66570603  0.33295823  0.18527409
   0.33272956  0.66703143  0.01860704
   0.33393713  0.66630195  0.31472628
   0.33429400  0.66704180  0.81472585
   0.33237269  0.66629157  0.51860746
   0.30606171 -0.00045397  0.24982897
   0.69393829  0.00045397  0.75017103
  -0.00023497  0.30637165  0.25008339
   0.00023497  0.69362835  0.74991661
   0.69400821  0.69378942  0.25008762
   0.30599179  0.30621058  0.74991238
   0.97272839  0.33287937  0.58316228
   0.36060495  0.33378732  0.08350437
   0.66643172  0.63970496  0.58341670
   0.66690165  0.02696169  0.08324994
   0.36067487  0.02712275  0.58342093
   0.97265847  0.63954389  0.08324572
   0.63939502  0.66621271  0.91649565
   0.02727163  0.66712066  0.41683769
   0.33309838  0.97303834  0.91675008
   0.33356831  0.36029501  0.41658327
   0.02734155  0.36045608  0.91675430
   0.63932510  0.97287727  0.41657904
Direct configuration=    19
  -0.00060358  0.00036499  0.35194033
   0.00060358 -0.00036499  0.64805964
   0.00096059  0.00037554  0.14805922
  -0.00096059 -0.00037554  0.85194081
   0.66606311  0.33369833  0.68527368
   0.66727027  0.33296835  0.98139301
   0.66762728  0.33370888  0.48139256
   0.66570610  0.33295780  0.18527407
   0.33272976  0.66703168  0.01860699
   0.33393692  0.66630170  0.31472632
   0.33429393  0.66704223  0.81472587
   0.33237275  0.66629115  0.51860744
   0.30605984 -0.00045694  0.24982917
   0.69394016  0.00045694  0.75017083
  -0.00023610  0.30636948  0.25008323
   0.00023610  0.69363052  0.74991677
   0.69400893  0.69378811  0.25008765
   0.30599107  0.30621189  0.74991235
   0.97272653  0.33287641  0.58316249
   0.36060682  0.33379028  0.08350416
   0.66643059  0.63970279  0.58341654
   0.66690278  0.02696386  0.08325011
   0.36067559  0.02712145  0.58342096
   0.97265775  0.63954520  0.08324569
   0.63939315  0.66620975  0.91649586
   0.02727350  0.66712362  0.41683748
   0.33309725  0.97303617  0.91674991
   0.33356944  0.36029718  0.41658343
   0.02734227  0.36045477  0.91675433
   0.63932438  0.97287857  0.41657901
Direct configuration=    20
  -0.00060363  0.00036493  0.35194034
   0.00060363 -0.00036493  0.64805963
   0.00096061  0.00037544  0.14805921
  -0.00096061 -0.00037544  0.85194082
   0.66606306  0.33369827  0.68527369
   0.66727032  0.33296841  0.98139300
   0.66762729  0.33370878  0.48139255
   0.66570608  0.33295791  0.18527407
   0.33272971  0.66703162  0.01860700
   0.33393697  0.66630176  0.31472631
   0.33429395  0.66704212  0.81472587
   0.33237274  0.66629125  0.51860745
   0.30606029 -0.00045622  0.24982912
   0.69393971  0.00045622  0.75017088
  -0.00023582  0.30637000  0.25008327
   0.00023582  0.69363000  0.74991673
   0.69400876  0.69378843  0.25008764
   0.30599124  0.30621157  0.74991236
   0.97272698  0.33287712  0.58316244
   0.36060637  0.33378956  0.08350421
   0.66643086  0.63970332  0.58341658
   0.66690251  0.02696333  0.08325007
   0.36067542  0.02712176  0.58342095
   0.97265793  0.63954488  0.08324570
   0.63939361  0.66621047  0.91649581
   0.02727304  0.66712291  0.41683753
   0.33309752  0.97303669  0.91674995
   0.33356917  0.36029665  0.41658339
   0.02734209  0.36045509  0.91675433
   0.63932455  0.97287826  0.41657902
Direct configuration=    21
  -0.00060360  0.00036497  0.35194034
   0.00060360 -0.00036497  0.64805963
   0.00096060  0.00037550  0.14805921
  -0.00096060 -0.00037550  0.85194082
   0.66606309  0.33369831  0.68527368
   0.66727029  0.33296837  0.98139301
   0.66762728  0.33370885  0.48139256
   0.66570609  0.33295784  0.18527407
   0.33272974  0.66703166  0.01860699
   0.33393694  0.66630172  0.31472632
   0.33429394  0.66704219  0.81472587
   0.33237275  0.66629118  0.51860744
   0.30606000 -0.00045668  0.24982916
   0.69394000  0.00045668  0.75017084
  -0.00023600  0.30636966  0.25008324
   0.00023600  0.69363034  0.74991676
   0.69400887  0.69378822  0.25008764
   0.30599113  0.30621178  0.74991236
   0.97272669  0.33287666  0.58316247
   0.36060666  0.33379003  0.08350418
   0.66643069  0.63970298  0.58341655
   0.66690269  0.02696367  0.08325010
   0.36067553  0.02712156  0.58342096
   0.97265781  0.63954509  0.08324569
   0.63939331  0.66621000  0.91649584
   0.02727334  0.66712337  0.41683750
   0.33309734  0.97303635  0.91674993
   0.33356934  0.36029699  0.41658342
   0.02734221  0.36045488  0.91675433
   0.63932444  0.97287846  0.41657901
Direct configuration=    22
  -0.00060362  0.00036495  0.35194034
   0.00060362 -0.00036495  0.64805963
   0.00096060  0.00037547  0.14805921
  -0.00096060 -0.00037547  0.85194082
   0.66606307  0.33369829  0.68527368
   0.66727030  0.33296839  0.98139300
   0.66762729  0.33370881  0.48139255
   0.66570608  0.33295788  0.18527407
   0.33272973  0.66703164  0.01860700
   0.33393696  0.66630174  0.31472632
   0.33429395  0.66704215  0.81472587
   0.33237274  0.66629122  0.51860745
   0.30606016 -0.00045642  0.24982914
   0.69393984  0.00045642  0.75017086
  -0.00023590  0.30636985  0.25008326
   0.00023590  0.69363015  0.74991674
   0.69400881  0.69378834  0.25008764
   0.30599119  0.30621166  0.74991236
   0.97272685  0.33287692  0.58316245
   0.36060649  0.33378977  0.08350420
   0.66643079  0.63970317  0.58341657
   0.66690259  0.02696348  0.08325008
   0.36067547  0.02712167  0.58342095
   0.97265788  0.63954497  0.08324569
   0.63939348  0.66621026  0.91649582
   0.02727317  0.66712311  0.41683752
   0.33309744  0.97303654  0.91674994
   0.33356924  0.36029680  0.41658340
   0.02734214  0.36045500  0.91675433
   0.63932450  0.97287835  0.41657902
Direct configuration=    23
  -0.00060361  0.00036496  0.35194034
   0.00060361 -0.00036496  0.64805963
   0.00096060  0.00037548  0.14805921
  -0.00096060 -0.00037548  0.85194082
   0.66606308  0.33369830  0.68527368
   0.66727029  0.33296838  0.98139300
   0.66762729  0.33370883  0.48139256
   0.66570609  0.33295786  0.18527407
   0.33272974  0.66703165  0.01860700
   0.33393695  0.66630173  0.31472632
   0.33429394  0.66704217  0.81472587
   0.33237274  0.66629120  0.51860744
   0.30606008 -0.00045655  0.24982915
   0.69393992  0.00045655  0.75017085
  -0.00023595  0.30636976  0.25008325
   0.00023595  0.69363024  0.74991675
   0.69400884  0.69378828  0.25008764
   0.30599116  0.30621172  0.74991236
   0.97272677  0.33287679  0.58316246
   0.36060658  0.33378990  0.08350419
   0.66643074  0.63970307  0.58341656
   0.66690264  0.02696357  0.08325009
   0.36067550  0.02712162  0.58342096
   0.97265785  0.63954503  0.08324569
   0.63939339  0.66621013  0.91649583
   0.02727325  0.66712324  0.41683751
   0.33309739  0.97303645  0.91674994
   0.33356929  0.36029690  0.41658341
   0.02734218  0.36045494  0.91675433
   0.63932447  0.97287840  0.41657901
Direct configuration=    24
  -0.00060361  0.00036495  0.35194034
   0.00060361 -0.00036495  0.64805963
   0.00096060  0.00037548  0.14805921
  -0.00096060 -0.00037548  0.85194082
   0.66606308  0.33369830  0.68527368
   0.66727030  0.33296839  0.98139300
   0.66762729  0.33370882  0.48139255
   0.66570609  0.33295787  0.18527407
   0.33272973  0.66703164  0.01860700
   0.33393695  0.66630173  0.31472632
   0.33429394  0.66704216  0.81472587
   0.33237274  0.66629121  0.51860745
   0.30606012 -0.00045649  0.24982914
   0.69393988  0.00045649  0.75017086
  -0.00023593  0.30636981  0.25008325
   0.00023593  0.69363019  0.74991675
   0.69400883  0.69378831  0.25008764
   0.30599117  0.30621169  0.74991236
   0.97272681  0.33287686  0.58316245
   0.36060654  0.33378983  0.08350419
   0.66643076  0.63970312  0.58341656
   0.66690261  0.02696353  0.08325008
   0.36067548  0.02712164  0.58342095
   0.97265786  0.63954500  0.08324569
   0.63939344  0.66621020  0.91649583
   0.02727321  0.66712317  0.41683752
   0.33309742  0.97303649  0.91674994
   0.33356927  0.36029685  0.41658341
   0.02734216  0.36045497  0.91675433
   0.63932449  0.97287838  0.41657902
Direct configuration=    25
  -0.00060361  0.00036495  0.35194034
   0.00060361 -0.00036495  0.64805963
   0.00096060  0.00037548  0.14805921
  -0.00096060 -0.00037548  0.85194082
   0.66606308  0.33369830  0.68527368
   0.66727030  0.33296839  0.98139300
   0.66762729  0.33370882  0.48139255
   0.66570609  0.33295787  0.18527407
   0.33272973  0.66703164  0.01860700
   0.33393695  0.66630173  0.31472632
   0.33429394  0.66704216  0.81472587
   0.33237274  0.66629121  0.51860745
   0.30606011 -0.00045650  0.24982914
   0.69393989  0.00045650  0.75017086
  -0.00023593  0.30636980  0.25008325
   0.00023593  0.69363020  0.74991675
   0.69400883  0.69378831  0.25008764
   0.30599117  0.30621169  0.74991236
   0.97272680  0.33287684  0.58316246
   0.36060654  0.33378984  0.08350419
   0.66643076  0.63970311  0.58341656
   0.66690262  0.02696354  0.08325009
   0.36067549  0.02712164  0.58342096
   0.97265786  0.63954501  0.08324569
   0.63939343  0.66621019  0.91649583
   0.02727322  0.66712319  0.41683751
   0.33309741  0.97303648  0.91674994
   0.33356927  0.36029686  0.41658341
   0.02734216  0.36045496  0.91675433
   0.63932449  0.97287838  0.41657901
Direct configuration=    26
  -0.00060361  0.00036495  0.35194034
   0.00060361 -0.00036495  0.64805963
   0.00096060  0.00037548  0.14805921
  -0.00096060 -0.00037548  0.85194082
   0.66606308  0.33369830  0.68527368
   0.66727030  0.33296839  0.98139300
   0.66762729  0.33370882  0.48139255
   0.66570609  0.33295787  0.18527407
   0.33272973  0.66703164  0.01860700
   0.33393695  0.66630173  0.31472632
   0.33429394  0.66704216  0.81472587
   0.33237274  0.66629121  0.51860745
   0.30606012 -0.00045649  0.24982914
   0.69393988  0.00045649  0.75017086
  -0.00023593  0.30636980  0.25008325