       N       E                     dE             d eps       ncg     rms          rms(c)
DAV:   1     0.350030105343E+02    0.35003E+02   -0.39390E+03 15984   0.666E+02
DAV:   2    -0.125647625050E+02   -0.47568E+02   -0.44897E+02 20228   0.106E+02
DAV:   3    -0.152897858823E+02   -0.27250E+01   -0.26229E+01 21548   0.275E+01
DAV:   4    -0.153359207137E+02   -0.46135E-01   -0.45898E-01 19372   0.344E+00
DAV:   5    -0.153367263717E+02   -0.80566E-03   -0.80512E-03 21460   0.397E-01    0.158E+00
RMM:   6    -0.152873866774E+02    0.49340E-01   -0.87010E-03 15984   0.754E-01    0.985E-01
RMM:   7    -0.152564080324E+02    0.30979E-01   -0.27932E-02 15984   0.134E+00    0.636E-02
RMM:   8    -0.152566424218E+02   -0.23439E-03   -0.81397E-04 16118   0.236E-01    0.168E-02
RMM:   9    -0.152566476770E+02   -0.52552E-05   -0.44476E-05 16359   0.476E-02    0.578E-03
RMM:  10    -0.152566662515E+02   -0.18575E-04   -0.95639E-06 15068   0.196E-02    0.120E-03
RMM:  11    -0.152566668876E+02   -0.63602E-06   -0.23291E-07  9442   0.329E-03
   1 F= -.15256667E+02 E0= -.15254886E+02  d E =-.152567E+02
       N       E                     dE             d eps       ncg     rms          rms(c)
DAV:   1    -0.152569834608E+02   -0.31721E-03   -0.11472E-03 19364   0.196E-01    0.490E-03
RMM:   2    -0.152569849798E+02   -0.15190E-05   -0.34177E-05 15662   0.339E-02    0.213E-03
RMM:   3    -0.152569860634E+02   -0.10836E-05   -0.14708E-06  9942   0.619E-03    0.843E-04
RMM:   4    -0.152569857438E+02    0.31961E-06   -0.23940E-07  7739   0.308E-03
   2 F= -.15256986E+02 E0= -.15255205E+02  d E =-.318856E-03
       N       E                     dE             d eps       ncg     rms          rms(c)
DAV:   1    -0.152578741274E+02   -0.88806E-03   -0.10335E-02 17080   0.588E-01    0.146E-02
RMM:   2    -0.152578976682E+02   -0.23541E-04   -0.33624E-04 16035   0.107E-01    0.838E-04
RMM:   3    -0.152578989161E+02   -0.12480E-05   -0.13725E-05 13984   0.161E-02    0.532E-04
RMM:   4    -0.152578990892E+02   -0.17307E-06   -0.37025E-07  9315   0.389E-03
   3 F= -.15257899E+02 E0= -.15256118E+02  d E =-.123220E-02
       N       E                     dE             d eps       ncg     rms          rms(c)
DAV:   1    -0.152594225111E+02   -0.15236E-02   -0.41300E-02 16648   0.118E+00    0.295E-02
RMM:   2    -0.152595169754E+02   -0.94464E-04   -0.13421E-03 16042   0.213E-01    0.217E-03
RMM:   3    -0.152595227084E+02   -0.57330E-05   -0.54429E-05 16344   0.321E-02    0.265E-04
RMM:   4    -0.152595226075E+02    0.10092E-06   -0.13800E-06 10459   0.626E-03
   4 F= -.15259523E+02 E0= -.15257742E+02  d E =-.285572E-02
       N       E                     dE             d eps       ncg     rms          rms(c)
DAV:   1    -0.152615413653E+02   -0.20187E-02   -0.16532E-01 16660   0.235E+00    0.588E-02
RMM:   2    -0.152619222166E+02   -0.38085E-03   -0.53327E-03 16038   0.425E-01    0.569E-03
RMM:   3    -0.152619448201E+02   -0.22604E-04   -0.21877E-04 16874   0.643E-02    0.697E-04
RMM:   4    -0.152619450089E+02   -0.18879E-06   -0.55145E-06 12137   0.119E-02
   5 F= -.15261945E+02 E0= -.15260189E+02  d E =-.527812E-02
       N       E                     dE             d eps       ncg     rms          rms(c)
DAV:   1    -0.152617443926E+02    0.20043E-03   -0.66226E-01 16604   0.470E+00    0.119E-01
RMM:   2    -0.152632859602E+02   -0.15416E-02   -0.21309E-02 16035   0.849E-01    0.190E-02
RMM:   3    -0.152633719146E+02   -0.85954E-04   -0.91186E-04 16908   0.131E-01    0.607E-03
RMM:   4    -0.152633733948E+02   -0.14803E-05   -0.28198E-05 14837   0.261E-02    0.289E-03
RMM:   5    -0.152633732937E+02    0.10116E-06   -0.24076E-06 11331   0.810E-03
   6 F= -.15263373E+02 E0= -.15261630E+02  d E =-.670641E-02
       N       E                     dE             d eps       ncg     rms          rms(c)
DAV:   1    -0.152633962536E+02   -0.22859E-04   -0.18820E-02 17468   0.794E-01    0.203E-02
RMM:   2    -0.152634415915E+02   -0.45338E-04   -0.62503E-04 16035   0.144E-01    0.107E-03
RMM:   3    -0.152634439930E+02   -0.24015E-05   -0.24749E-05 14680   0.216E-02    0.617E-04
RMM:   4    -0.152634439688E+02    0.24232E-07   -0.67404E-07  9527   0.490E-03
   7 F= -.15263444E+02 E0= -.15261701E+02  d E =-.677708E-02
