Sn                                      
           1
     5.825411   -0.059443    0.000000
    -0.059443    5.944297    0.000000
     0.000000    0.000000    3.147808
   Sn
   4
Direct configuration=     1
   0.00000000  0.00000000  0.50000000
   0.50000000  0.00000000  0.75000000
   0.50000000  0.50000000  0.00000000
   0.00000000  0.50000000  0.25000000
Direct configuration=     2
   0.00000000  0.00000000  0.49951349
   0.50000000 -0.00000000  0.75048651
   0.50000000  0.50000000 -0.00048651
  -0.00000000  0.50000000  0.25048651
Direct configuration=     3
   0.00000000  0.00000000  0.49805396
   0.50000000 -0.00000000  0.75194604
   0.50000000  0.50000000 -0.00194604
  -0.00000000  0.50000000  0.25194604
Direct configuration=     4
   0.00000000  0.00000000  0.49513491
   0.50000000 -0.00000000  0.75486509
   0.50000000  0.50000000 -0.00486509
  -0.00000000  0.50000000  0.25486509
Direct configuration=     5
   0.00000000  0.00000000  0.48929679
   0.50000000 -0.00000000  0.76070321
   0.50000000  0.50000000 -0.01070321
  -0.00000000  0.50000000  0.26070321
Direct configuration=     6
   0.00000000  0.00000000  0.47762057
   0.50000000 -0.00000000  0.77237943
   0.50000000  0.50000000 -0.02237943
  -0.00000000  0.50000000  0.27237943
Direct configuration=     7
   0.00000000  0.00000000  0.47959343
   0.50000000 -0.00000000  0.77040657
   0.50000000  0.50000000 -0.02040657
  -0.00000000  0.50000000  0.27040657
