       N       E                     dE             d eps       ncg     rms          rms(c)
DAV:   1     0.270728457864E+02    0.27073E+02   -0.84278E+03  1560   0.798E+02
DAV:   2    -0.219044557360E+02   -0.48977E+02   -0.44820E+02  1900   0.874E+01
DAV:   3    -0.242896826822E+02   -0.23852E+01   -0.22828E+01  1958   0.167E+01
DAV:   4    -0.243513942538E+02   -0.61712E-01   -0.61377E-01  2060   0.317E+00
DAV:   5    -0.243531868171E+02   -0.17926E-02   -0.17924E-02  2086   0.541E-01    0.275E+00
RMM:   6    -0.243514647331E+02    0.17221E-02   -0.81268E-03  1560   0.621E-01    0.176E+00
RMM:   7    -0.243552343344E+02   -0.37696E-02   -0.30364E-02  1560   0.130E+00    0.117E-01
RMM:   8    -0.243550841493E+02    0.15019E-03   -0.29154E-04  1564   0.110E-01    0.356E-02
RMM:   9    -0.243550999148E+02   -0.15765E-04   -0.49843E-05  1688   0.405E-02    0.198E-03
RMM:  10    -0.243551038208E+02   -0.39060E-05   -0.46918E-06  1376   0.104E-02    0.765E-04
RMM:  11    -0.243551052719E+02   -0.14511E-05   -0.46473E-07   946   0.400E-03    0.169E-04
RMM:  12    -0.243551054841E+02   -0.21222E-06   -0.19619E-07   809   0.260E-03
   1 F= -.24355105E+02 E0= -.24347049E+02  d E =-.243551E+02
