       N       E                     dE             d eps       ncg     rms          rms(c)
DAV:   1     0.880230301343E+03    0.88023E+03   -0.83858E+04 13752   0.175E+03
DAV:   2    -0.196360490150E+03   -0.10766E+04   -0.10509E+04 16936   0.350E+02
DAV:   3    -0.250578190626E+03   -0.54218E+02   -0.54016E+02 16208   0.850E+01
DAV:   4    -0.251201824872E+03   -0.62363E+00   -0.62198E+00 16160   0.100E+01
DAV:   5    -0.251212007475E+03   -0.10183E-01   -0.10170E-01 16040   0.124E+00    0.297E+01
RMM:   6    -0.226550164875E+03    0.24662E+02   -0.11208E+02 13728   0.317E+01    0.797E+00
RMM:   7    -0.226471412528E+03    0.78752E-01   -0.24120E+00 13728   0.402E+00    0.543E+00
RMM:   8    -0.226506026870E+03   -0.34614E-01   -0.59463E-01 13728   0.386E+00    0.108E+00
RMM:   9    -0.226483990786E+03    0.22036E-01   -0.22464E-01 13728   0.143E+00    0.273E-01
RMM:  10    -0.226484681343E+03   -0.69056E-03   -0.52754E-03 13730   0.248E-01    0.265E-01
RMM:  11    -0.226483047345E+03    0.16340E-02   -0.89389E-03 13728   0.294E-01    0.217E-02
RMM:  12    -0.226483046793E+03    0.55193E-06   -0.87667E-05 13728   0.355E-02    0.595E-03
RMM:  13    -0.226483046580E+03    0.21230E-06   -0.28002E-06  8729   0.556E-03
   1 F= -.22648305E+03 E0= -.22648305E+03  d E =-.226483E+03
       N       E                     dE             d eps       ncg     rms          rms(c)
DAV:   1    -0.226487458206E+03   -0.44114E-02   -0.30532E-01 16184   0.216E+00    0.103E-01
RMM:   2    -0.226488566442E+03   -0.11082E-02   -0.12054E-02 13728   0.389E-01    0.123E-01
RMM:   3    -0.226488161088E+03    0.40535E-03   -0.22119E-03 13728   0.150E-01    0.494E-02
RMM:   4    -0.226488105312E+03    0.55776E-04   -0.24104E-04 13728   0.446E-02    0.181E-02
RMM:   5    -0.226488111064E+03   -0.57518E-05   -0.19233E-04 13728   0.413E-02    0.225E-02
RMM:   6    -0.226488107748E+03    0.33161E-05   -0.19771E-04 13728   0.438E-02    0.199E-02
RMM:   7    -0.226488098841E+03    0.89074E-05   -0.48127E-05 13718   0.218E-02    0.121E-03
RMM:   8    -0.226488098753E+03    0.87389E-07   -0.19483E-07  8112   0.159E-03
   2 F= -.22648810E+03 E0= -.22648810E+03  d E =-.505217E-02
       N       E                     dE             d eps       ncg     rms          rms(c)
DAV:   1    -0.226488427631E+03   -0.32879E-03   -0.43709E-02 15216   0.819E-01    0.391E-02
RMM:   2    -0.226488519690E+03   -0.92059E-04   -0.13546E-03 13728   0.135E-01    0.239E-03
RMM:   3    -0.226488514890E+03    0.47997E-05   -0.14688E-05 13080   0.127E-02    0.106E-03
RMM:   4    -0.226488514975E+03   -0.84902E-07   -0.60447E-07  8112   0.275E-03
   3 F= -.22648851E+03 E0= -.22648851E+03  d E =-.546839E-02
       N       E                     dE             d eps       ncg     rms          rms(c)
DAV:   1    -0.226488982284E+03   -0.46739E-03   -0.11656E-01 14904   0.140E+00    0.374E-02
RMM:   2    -0.226489436550E+03   -0.45427E-03   -0.38576E-03 13728   0.226E-01    0.111E-01
RMM:   3    -0.226489155855E+03    0.28070E-03   -0.70900E-04 13728   0.846E-02    0.407E-02
RMM:   4    -0.226489136716E+03    0.19139E-04   -0.29544E-04 13728   0.514E-02    0.147E-02
RMM:   5    -0.226489134937E+03    0.17791E-05   -0.43163E-06 10855   0.654E-03    0.130E-02
RMM:   6    -0.226489131149E+03    0.37876E-05   -0.16506E-05 13500   0.126E-02    0.171E-03
RMM:   7    -0.226489131164E+03   -0.14606E-07   -0.51972E-07  8109   0.231E-03
   4 F= -.22648913E+03 E0= -.22648913E+03  d E =-.616189E-03
       N       E                     dE             d eps       ncg     rms          rms(c)
DAV:   1    -0.226489169167E+03   -0.38018E-04   -0.26278E-02 15344   0.663E-01    0.177E-02
RMM:   2    -0.226489204056E+03   -0.34889E-04   -0.49132E-04 13728   0.850E-02    0.147E-03
RMM:   3    -0.226489202662E+03    0.13938E-05   -0.64094E-06 10673   0.861E-03    0.587E-04
RMM:   4    -0.226489202725E+03   -0.62953E-07   -0.41992E-07  8050   0.240E-03
   5 F= -.22648920E+03 E0= -.22648920E+03  d E =-.687750E-03
       N       E                     dE             d eps       ncg     rms          rms(c)
DAV:   1    -0.226489223245E+03   -0.20583E-04   -0.80233E-03 14832   0.362E-01    0.110E-02
RMM:   2    -0.226489251123E+03   -0.27878E-04   -0.24823E-04 13728   0.571E-02    0.245E-02
RMM:   3    -0.226489238139E+03    0.12984E-04   -0.59030E-05 13728   0.243E-02    0.615E-03
RMM:   4    -0.226489237994E+03    0.14540E-06   -0.37256E-06 10409   0.632E-03
   6 F= -.22648924E+03 E0= -.22648924E+03  d E =-.352682E-04
       N       E                     dE             d eps       ncg     rms          rms(c)
DAV:   1    -0.226489230359E+03    0.77798E-05   -0.11303E-02 14696   0.430E-01    0.135E-02
RMM:   2    -0.226489251624E+03   -0.21265E-04   -0.23484E-04 13728   0.578E-02    0.229E-03
RMM:   3    -0.226489251089E+03    0.53440E-06   -0.39248E-06  9635   0.618E-03    0.173E-03
RMM:   4    -0.226489251102E+03   -0.12924E-07   -0.39320E-07  8078   0.211E-03
   7 F= -.22648925E+03 E0= -.22648925E+03  d E =-.483771E-04
       N       E                     dE             d eps       ncg     rms          rms(c)
DAV:   1    -0.226489254327E+03   -0.32376E-05   -0.51967E-03 14832   0.289E-01    0.946E-03
RMM:   2    -0.226489269450E+03   -0.15123E-04   -0.14300E-04 13728   0.432E-02    0.150E-02
RMM:   3    -0.226489265056E+03    0.43940E-05   -0.14228E-05 13608   0.121E-02    0.551E-03
RMM:   4    -0.226489264626E+03    0.42970E-06   -0.40043E-06 11134   0.608E-03
   8 F= -.22648926E+03 E0= -.22648926E+03  d E =-.135237E-04
       N       E                     dE             d eps       ncg     rms          rms(c)
DAV:   1    -0.226489264337E+03    0.71885E-06   -0.34516E-04 15672   0.747E-02    0.356E-03
RMM:   2    -0.226489265137E+03   -0.80009E-06   -0.77450E-06 11726   0.104E-02    0.179E-03
RMM:   3    -0.226489265114E+03    0.22745E-07   -0.24718E-07  7269   0.176E-03    0.915E-04
RMM:   4    -0.226489265106E+03    0.81419E-08   -0.34670E-08  3449   0.818E-04
   9 F= -.22648927E+03 E0= -.22648927E+03  d E =-.140037E-04
       N       E                     dE             d eps       ncg     rms          rms(c)
DAV:   1    -0.226489265097E+03    0.16867E-07   -0.34619E-06 12560   0.743E-03    0.405E-04
RMM:   2    -0.226489265103E+03   -0.59238E-08   -0.65200E-08  4516   0.116E-03    0.253E-04
RMM:   3    -0.226489265101E+03    0.21008E-08   -0.23283E-09   917   0.546E-04    0.182E-04
RMM:   4    -0.226489265107E+03   -0.60957E-08   -0.12823E-08  1643   0.665E-04
  10 F= -.22648927E+03 E0= -.22648927E+03  d E =-.140049E-04
       N       E                     dE             d eps       ncg     rms          rms(c)
DAV:   1    -0.226489265113E+03   -0.11669E-07   -0.13046E-06  8424   0.464E-03    0.260E-04
RMM:   2    -0.226489265119E+03   -0.61124E-08   -0.67477E-08  6312   0.121E-03    0.132E-04
RMM:   3    -0.226489265117E+03    0.17308E-08   -0.20552E-11   378   0.334E-04    0.833E-05
RMM:   4    -0.226489265115E+03    0.21176E-08   -0.36590E-11   325   0.377E-04
  11 F= -.22648927E+03 E0= -.22648927E+03  d E =-.140128E-04
       N       E                     dE             d eps       ncg     rms          rms(c)
DAV:   1    -0.226489265110E+03    0.70163E-08   -0.28137E-07  7808   0.222E-03    0.120E-04
RMM:   2    -0.226489265113E+03   -0.24848E-08   -0.56043E-11   459   0.561E-04    0.533E-05
RMM:   3    -0.226489265111E+03    0.18903E-08   -0.21797E-11   263   0.571E-04    0.584E-05
RMM:   4    -0.226489265111E+03    0.36664E-09    0.00000E+00   229   0.572E-04
  12 F= -.22648927E+03 E0= -.22648927E+03  d E =-.140081E-04
       N       E                     dE             d eps       ncg     rms          rms(c)
DAV:   1    -0.226489265113E+03   -0.23888E-08   -0.93000E-08  8016   0.117E-03    0.132E-04
RMM:   2    -0.226489265113E+03   -0.13000E-09    0.00000E+00   393   0.307E-04    0.398E-05
RMM:   3    -0.226489265114E+03   -0.45949E-09    0.00000E+00   221   0.328E-04    0.264E-05
RMM:   4    -0.226489265114E+03   -0.14541E-09    0.00000E+00   195   0.336E-04
  13 F= -.22648927E+03 E0= -.22648927E+03  d E =-.140116E-04
       N       E                     dE             d eps       ncg     rms          rms(c)
DAV:   1    -0.226489265113E+03    0.81576E-09   -0.18351E-08  7624   0.521E-04    0.727E-05
RMM:   2    -0.226489265113E+03    0.80632E-10    0.00000E+00   297   0.206E-04    0.670E-05
RMM:   3    -0.226489265113E+03    0.85663E-10    0.00000E+00   176   0.205E-04    0.592E-05
RMM:   4    -0.226489265113E+03   -0.29195E-09    0.00000E+00   157   0.176E-04
  14 F= -.22648927E+03 E0= -.22648927E+03  d E =-.140108E-04
       N       E                     dE             d eps       ncg     rms          rms(c)
DAV:   1    -0.226489265114E+03   -0.13541E-08   -0.59210E-09  7720   0.301E-04    0.496E-05
RMM:   2    -0.226489265114E+03    0.39790E-10    0.00000E+00   237   0.964E-05    0.212E-05
RMM:   3    -0.226489265114E+03   -0.50989E-10    0.00000E+00   164   0.986E-05    0.205E-05
RMM:   4    -0.226489265114E+03   -0.10439E-09    0.00000E+00   142   0.101E-04
  15 F= -.22648927E+03 E0= -.22648927E+03  d E =-.140119E-04
       N       E                     dE             d eps       ncg     rms          rms(c)
DAV:   1    -0.226489265570E+03   -0.45568E-06   -0.55298E-05 14088   0.295E-02    0.132E-03
RMM:   2    -0.226489265889E+03   -0.31948E-06   -0.22317E-06  7238   0.557E-03    0.301E-03
RMM:   3    -0.226489265684E+03    0.20513E-06   -0.10599E-06  6920   0.349E-03    0.874E-04
RMM:   4    -0.226489265701E+03   -0.16941E-07   -0.90358E-08  6646   0.107E-03
  16 F= -.22648927E+03 E0= -.22648927E+03  d E =-.586868E-06
       N       E                     dE             d eps       ncg     rms          rms(c)
DAV:   1    -0.226489265738E+03   -0.54070E-07   -0.75180E-06 14024   0.109E-02    0.569E-04
RMM:   2    -0.226489265754E+03   -0.15859E-07   -0.19696E-07  6875   0.173E-03    0.294E-04
RMM:   3    -0.226489265747E+03    0.76773E-08   -0.99285E-10  1035   0.508E-04    0.156E-04
RMM:   4    -0.226489265744E+03    0.26299E-08   -0.94477E-10   706   0.695E-04
  17 F= -.22648927E+03 E0= -.22648927E+03  d E =-.629550E-06
       N       E                     dE             d eps       ncg     rms          rms(c)
DAV:   1    -0.226489265753E+03   -0.68085E-08   -0.14668E-05 13256   0.155E-02    0.562E-04
RMM:   2    -0.226489265933E+03   -0.17980E-06   -0.10906E-06  6921   0.370E-03    0.265E-03
RMM:   3    -0.226489265776E+03    0.15676E-06   -0.54628E-07  6913   0.247E-03    0.288E-04
RMM:   4    -0.226489265773E+03    0.34933E-08   -0.56019E-09  1223   0.748E-04
  18 F= -.22648927E+03 E0= -.22648927E+03  d E =-.289898E-07
       N       E                     dE             d eps       ncg     rms          rms(c)
DAV:   1    -0.226489265768E+03    0.79442E-08   -0.18276E-06  8120   0.561E-03    0.299E-04
RMM:   2    -0.226489265780E+03   -0.11468E-07   -0.10404E-07  6441   0.147E-03    0.106E-04
RMM:   3    -0.226489265781E+03   -0.11692E-08   -0.27228E-11   734   0.408E-04    0.581E-05
RMM:   4    -0.226489265783E+03   -0.16886E-08    0.00000E+00   398   0.421E-04
  19 F= -.22648927E+03 E0= -.22648927E+03  d E =-.388650E-07
       N       E                     dE             d eps       ncg     rms          rms(c)
DAV:   1    -0.226489265782E+03   -0.11342E-08   -0.89832E-07  7624   0.395E-03    0.172E-04
RMM:   2    -0.226489265786E+03   -0.39144E-08   -0.37328E-08  4998   0.995E-04    0.117E-04
RMM:   3    -0.226489265786E+03    0.41621E-09    0.00000E+00   144   0.328E-04    0.534E-05
RMM:   4    -0.226489265786E+03   -0.20199E-09   -0.86511E-11   156   0.352E-04
  20 F= -.22648927E+03 E0= -.22648927E+03  d E =-.420108E-07
       N       E                     dE             d eps       ncg     rms          rms(c)
DAV:   1    -0.226489265786E+03   -0.43886E-09   -0.22479E-07  7584   0.195E-03    0.108E-04
RMM:   2    -0.226489265785E+03    0.12410E-08    0.00000E+00   309   0.472E-04    0.584E-05
RMM:   3    -0.226489265785E+03   -0.10454E-09    0.00000E+00   137   0.472E-04    0.621E-05
RMM:   4    -0.226489265785E+03    0.27629E-09    0.00000E+00   122   0.474E-04
  21 F= -.22648927E+03 E0= -.22648927E+03  d E =-.408349E-07
       N       E                     dE             d eps       ncg     rms          rms(c)
DAV:   1    -0.226489265785E+03   -0.37463E-09   -0.23343E-08  7680   0.590E-04    0.579E-05
RMM:   2    -0.226489265786E+03   -0.11832E-09    0.00000E+00   286   0.126E-04    0.207E-05
RMM:   3    -0.226489265786E+03   -0.13304E-09    0.00000E+00   122   0.124E-04    0.190E-05
RMM:   4    -0.226489265786E+03    0.34646E-10    0.00000E+00   100   0.124E-04
  22 F= -.22648927E+03 E0= -.22648927E+03  d E =-.417025E-07
       N       E                     dE             d eps       ncg     rms          rms(c)
DAV:   1    -0.226489265786E+03    0.10053E-09   -0.40930E-09  7568   0.252E-04    0.286E-05
RMM:   2    -0.226489265786E+03   -0.20569E-09    0.00000E+00   223   0.875E-05    0.223E-05
RMM:   3    -0.226489265786E+03    0.17823E-09    0.00000E+00   108   0.870E-05    0.206E-05
RMM:   4    -0.226489265786E+03    0.13955E-10    0.00000E+00    88   0.863E-05
  23 F= -.22648927E+03 E0= -.22648927E+03  d E =-.416501E-07
       N       E                     dE             d eps       ncg     rms          rms(c)
DAV:   1    -0.226489265786E+03    0.28990E-11   -0.44888E-10  7320   0.825E-05    0.232E-05
RMM:   2    -0.226489265786E+03   -0.45219E-10    0.00000E+00   172   0.247E-05    0.199E-05
RMM:   3    -0.226489265786E+03   -0.32657E-10    0.00000E+00    97   0.236E-05    0.193E-05
RMM:   4    -0.226489265786E+03    0.25636E-10    0.00000E+00    84   0.233E-05
  24 F= -.22648927E+03 E0= -.22648927E+03  d E =-.417134E-07
       N       E                     dE             d eps       ncg     rms          rms(c)
DAV:   1    -0.226489265786E+03    0.44480E-10   -0.12443E-10  7416   0.460E-05    0.195E-05
RMM:   2    -0.226489265786E+03    0.47152E-10    0.00000E+00   128   0.168E-05    0.190E-05
RMM:   3    -0.226489265786E+03    0.38654E-11    0.00000E+00    87   0.169E-05    0.190E-05
RMM:   4    -0.226489265786E+03   -0.68496E-11    0.00000E+00    80   0.168E-05
  25 F= -.22648927E+03 E0= -.22648927E+03  d E =-.416504E-07
       N       E                     dE             d eps       ncg     rms          rms(c)
DAV:   1    -0.226489265786E+03    0.10829E-10   -0.42698E-11  7232   0.261E-05    0.191E-05
RMM:   2    -0.226489265786E+03   -0.57355E-10    0.00000E+00   110   0.754E-06    0.190E-05
RMM:   3    -0.226489265786E+03   -0.79581E-11    0.00000E+00    80   0.757E-06    0.189E-05
RMM:   4    -0.226489265786E+03    0.31548E-10    0.00000E+00    74   0.758E-06
  26 F= -.22648927E+03 E0= -.22648927E+03  d E =-.416665E-07
       N       E                     dE             d eps       ncg     rms          rms(c)
DAV:   1    -0.226489265785E+03    0.14282E-09   -0.64651E-12  7264   0.105E-05    0.190E-05
RMM:   2    -0.226489265786E+03   -0.13375E-09    0.00000E+00   105   0.440E-06    0.189E-05
RMM:   3    -0.226489265786E+03    0.70486E-11    0.00000E+00    81   0.440E-06    0.189E-05
RMM:   4    -0.226489265786E+03    0.72760E-11    0.00000E+00    79   0.437E-06
  27 F= -.22648927E+03 E0= -.22648927E+03  d E =-.416746E-07
       N       E                     dE             d eps       ncg     rms          rms(c)
DAV:   1    -0.226489265786E+03    0.18190E-10   -0.38764E-12  7176   0.730E-06    0.190E-05
RMM:   2    -0.226489265786E+03   -0.10232E-10    0.00000E+00    94   0.270E-06    0.189E-05
RMM:   3    -0.226489265786E+03   -0.25295E-11    0.00000E+00    76   0.265E-06    0.189E-05
RMM:   4    -0.226489265786E+03   -0.57128E-11    0.00000E+00    69   0.264E-06
  28 F= -.22648927E+03 E0= -.22648927E+03  d E =-.416822E-07
       N       E                     dE             d eps       ncg     rms          rms(c)
DAV:   1    -0.226489265786E+03    0.20009E-10   -0.81668E-13  7232   0.316E-06    0.189E-05
RMM:   2    -0.226489265786E+03   -0.20975E-10    0.00000E+00    94   0.141E-06    0.189E-05
RMM:   3    -0.226489265786E+03    0.10544E-10    0.00000E+00    76   0.141E-06    0.189E-05
RMM:   4    -0.226489265786E+03   -0.73044E-11    0.00000E+00    66   0.141E-06
  29 F= -.22648927E+03 E0= -.22648927E+03  d E =-.416742E-07
       N       E                     dE             d eps       ncg     rms          rms(c)
DAV:   1    -0.226489265786E+03   -0.13785E-10   -0.35937E-13  7176   0.215E-06    0.189E-05
RMM:   2    -0.226489265786E+03   -0.82991E-11    0.00000E+00    85   0.913E-07    0.189E-05
RMM:   3    -0.226489265786E+03    0.91518E-11    0.00000E+00    67   0.909E-07    0.189E-05
RMM:   4    -0.226489265786E+03   -0.88392E-11    0.00000E+00    63   0.908E-07
  30 F= -.22648927E+03 E0= -.22648927E+03  d E =-.416887E-07
       N       E                     dE             d eps       ncg     rms          rms(c)
DAV:   1    -0.226489265786E+03    0.39080E-10   -0.59629E-14  7176   0.101E-06    0.189E-05
RMM:   2    -0.226489265786E+03   -0.27825E-10    0.00000E+00    82   0.452E-07    0.189E-05
RMM:   3    -0.226489265786E+03   -0.46327E-11    0.00000E+00    68   0.451E-07    0.189E-05
RMM:   4    -0.226489265786E+03   -0.10232E-11    0.00000E+00    61   0.453E-07
  31 F= -.22648927E+03 E0= -.22648927E+03  d E =-.416742E-07
       N       E                     dE             d eps       ncg     rms          rms(c)
DAV:   1    -0.226489265786E+03   -0.74863E-10   -0.21362E-13  7136   0.629E-07    0.189E-05
RMM:   2    -0.226489265786E+03    0.52609E-10    0.00000E+00    75   0.296E-07    0.189E-05
RMM:   3    -0.226489265786E+03    0.10232E-11    0.00000E+00    62   0.296E-07    0.189E-05
RMM:   4    -0.226489265786E+03   -0.29843E-11    0.00000E+00    55   0.296E-07
  32 F= -.22648927E+03 E0= -.22648927E+03  d E =-.416974E-07
       N       E                     dE             d eps       ncg     rms          rms(c)
DAV:   1    -0.226489265786E+03    0.43030E-10    0.12331E-13  7160   0.317E-07    0.189E-05
RMM:   2    -0.226489265786E+03   -0.34902E-10    0.00000E+00    79   0.145E-07    0.189E-05
RMM:   3    -0.226489265786E+03    0.34959E-11    0.00000E+00    60   0.145E-07    0.189E-05
RMM:   4    -0.226489265786E+03   -0.65370E-11    0.00000E+00    57   0.145E-07
  33 F= -.22648927E+03 E0= -.22648927E+03  d E =-.416894E-07
       N       E                     dE             d eps       ncg     rms          rms(c)
DAV:   1    -0.226489265786E+03   -0.88079E-10    0.25557E-14  7120   0.182E-07    0.189E-05
RMM:   2    -0.226489265786E+03    0.78558E-10    0.00000E+00    71   0.926E-08    0.189E-05
RMM:   3    -0.226489265786E+03    0.32685E-11    0.00000E+00    54   0.929E-08    0.189E-05
RMM:   4    -0.226489265786E+03    0.71054E-12    0.00000E+00    47   0.929E-08
  34 F= -.22648927E+03 E0= -.22648927E+03  d E =-.416884E-07
       N       E                     dE             d eps       ncg     rms          rms(c)
DAV:   1    -0.226489265786E+03   -0.58293E-10   -0.35728E-14  7160   0.972E-08    0.189E-05
RMM:   2    -0.226489265786E+03    0.48686E-10    0.00000E+00    72   0.455E-08    0.189E-05
RMM:   3    -0.226489265786E+03    0.20009E-10    0.00000E+00    54   0.455E-08    0.189E-05
RMM:   4    -0.226489265786E+03   -0.93792E-11    0.00000E+00    50   0.455E-08
  35 F= -.22648927E+03 E0= -.22648927E+03  d E =-.416881E-07
       N       E                     dE             d eps       ncg     rms          rms(c)
DAV:   1    -0.226489265715E+03    0.70160E-07   -0.21256E-05 12800   0.187E-02    0.608E-04
RMM:   2    -0.226489265766E+03   -0.50509E-07   -0.49928E-07  6872   0.271E-03    0.490E-04
RMM:   3    -0.226489265755E+03    0.10648E-07   -0.89038E-09  2124   0.680E-04    0.569E-05
RMM:   4    -0.226489265753E+03    0.21480E-08   -0.86880E-11   904   0.558E-04
  36 F= -.22648927E+03 E0= -.22648927E+03  d E =-.923231E-08
