AlO                                     
           1
     4.802777   -0.000000    0.000000
    -2.401388    4.117733   -0.020797
     0.000000   -0.065513   13.102626
   Al   O 
  12  18
Direct configuration=     1
   0.00000000  0.00000000  0.35221672
   0.00000000  0.00000000  0.64778325
   0.00000000  0.00000000  0.14778328
   0.00000000  0.00000000  0.85221675
   0.66666669  0.33333334  0.68555007
   0.66666669  0.33333334  0.98111662
   0.66666669  0.33333334  0.48111662
   0.66666669  0.33333334  0.18555001
   0.33333334  0.66666669  0.01888338
   0.33333334  0.66666669  0.31444993
   0.33333334  0.66666669  0.81444993
   0.33333334  0.66666669  0.51888338
   0.30611761  0.00000000  0.25000000
   0.69388239  0.00000000  0.75000000
   0.00000000  0.30611761  0.25000000
   0.00000000  0.69388239  0.75000000
   0.69388239  0.69388239  0.25000000
   0.30611761  0.30611761  0.75000000
   0.97278430  0.33333334  0.58333331
   0.36054904  0.33333334  0.08333334
   0.66666669  0.63945093  0.58333331
   0.66666669  0.02721572  0.08333334
   0.36054904  0.02721572  0.58333331
   0.97278430  0.63945093  0.08333334
   0.63945093  0.66666669  0.91666669
   0.02721572  0.66666669  0.41666666
   0.33333334  0.97278430  0.91666669
   0.33333334  0.36054904  0.41666666
   0.02721572  0.36054904  0.91666669
   0.63945093  0.97278430  0.41666666
Direct configuration=     2
  -0.00059621 -0.00091830  0.35213112
   0.00059621  0.00091830  0.64786885
   0.00032209  0.00091830  0.14786888
  -0.00032209 -0.00091830  0.85213115
   0.66607047  0.33241504  0.68546446
   0.66726290  0.33425164  0.98120222
   0.66698877  0.33425164  0.48120222
   0.66634460  0.33241504  0.18546440
   0.33273713  0.66574839  0.01879778
   0.33392956  0.66758499  0.31453554
   0.33365543  0.66758499  0.81453554
   0.33301126  0.66574839  0.51879778
   0.30630449  0.00000000  0.25000000
   0.69369551  0.00000000  0.75000000
  -0.00023102  0.30608695  0.24989891
   0.00023102  0.69391305  0.75010109
   0.69368204  0.69391305  0.25010109
   0.30631796  0.30608695  0.74989891
   0.97297118  0.33333334  0.58333331
   0.36036217  0.33333334  0.08333334
   0.66643567  0.63942026  0.58323222
   0.66689770  0.02724639  0.08343443
   0.36034869  0.02724639  0.58343440
   0.97298465  0.63942026  0.08323224
   0.63963780  0.66666669  0.91666669
   0.02702885  0.66666669  0.41666666
   0.33310233  0.97275363  0.91656560
   0.33356436  0.36057971  0.41676775
   0.02701537  0.36057971  0.91676778
   0.63965128  0.97275363  0.41656557
Direct configuration=     3
  -0.00082189 -0.00126589  0.35209872
   0.00082189  0.00126589  0.64790125
   0.00044400  0.00126589  0.14790128
  -0.00044400 -0.00126589  0.85209875
   0.66584480  0.33206746  0.68543206
   0.66748857  0.33459923  0.98123463
   0.66711069  0.33459923  0.48123463
   0.66622269  0.33206746  0.18543200
   0.33251146  0.66540080  0.01876537
   0.33415523  0.66793257  0.31456794
   0.33377734  0.66793257  0.81456794
   0.33288934  0.66540080  0.51876537
   0.30637522  0.00000000  0.25000000
   0.69362478  0.00000000  0.75000000
  -0.00031846  0.30607534  0.24986064
   0.00031846  0.69392466  0.75013936
   0.69360620  0.69392466  0.25013936
   0.30639380  0.30607534  0.74986064
   0.97304191  0.33333334  0.58333331
   0.36029143  0.33333334  0.08333334
   0.66634823  0.63940866  0.58319396
   0.66698515  0.02725799  0.08347269
   0.36027286  0.02725799  0.58347267
   0.97306049  0.63940866  0.08319398
   0.63970854  0.66666669  0.91666669
   0.02695811  0.66666669  0.41666666
   0.33301488  0.97274203  0.91652733
   0.33365180  0.36059132  0.41680601
   0.02693953  0.36059132  0.91680604
   0.63972711  0.97274203  0.41652730
Direct configuration=     4
  -0.00096150 -0.00144558  0.35206070
   0.00096150  0.00144558  0.64793927
   0.00048408  0.00144558  0.14793930
  -0.00048408 -0.00144558  0.85206073
   0.66570518  0.33188776  0.68539404
   0.66762819  0.33477892  0.98127264
   0.66715076  0.33477892  0.48127264
   0.66618261  0.33188776  0.18539399
   0.33237184  0.66522111  0.01872736
   0.33429485  0.66811227  0.31460596
   0.33381742  0.66811227  0.81460596
   0.33284927  0.66522111  0.51872736
   0.30627402  0.00000000  0.25000000
   0.69372598  0.00000000  0.75000000
  -0.00006782  0.30636054  0.24988107
   0.00006782  0.69363946  0.75011893
   0.69357165  0.69363946  0.25011893
   0.30642835  0.30636054  0.74988107
   0.97294071  0.33333334  0.58333331
   0.36039264  0.33333334  0.08333334
   0.66659887  0.63969385  0.58321438
   0.66673450  0.02697280  0.08345227
   0.36023830  0.02697280  0.58345225
   0.97309504  0.63969385  0.08321440
   0.63960733  0.66666669  0.91666669
   0.02705932  0.66666669  0.41666666
   0.33326553  0.97302722  0.91654775
   0.33340116  0.36030612  0.41678559
   0.02690498  0.36030612  0.91678562
   0.63976167  0.97302722  0.41654772
Direct configuration=     5
  -0.00102778 -0.00153087  0.35204266
   0.00102778  0.00153087  0.64795731
   0.00050310  0.00153087  0.14795734
  -0.00050310 -0.00153087  0.85204269
   0.66563891  0.33180247  0.68537600
   0.66769446  0.33486422  0.98129069
   0.66716979  0.33486422  0.48129069
   0.66616359  0.33180247  0.18537594
   0.33230557  0.66513581  0.01870931
   0.33436112  0.66819756  0.31462400
   0.33383644  0.66819756  0.81462400
   0.33283024  0.66513581  0.51870931
   0.30622598  0.00000000  0.25000000
   0.69377402  0.00000000  0.75000000
   0.00005116  0.30649591  0.24989076
  -0.00005116  0.69350409  0.75010924
   0.69355524  0.69350409  0.25010924
   0.30644476  0.30649591  0.74989076
   0.97289267  0.33333334  0.58333331
   0.36044068  0.33333334  0.08333334
   0.66671784  0.63982923  0.58322407
   0.66661553  0.02683742  0.08344258
   0.36022190  0.02683742  0.58344255
   0.97311144  0.63982923  0.08322410
   0.63955929  0.66666669  0.91666669
   0.02710736  0.66666669  0.41666666
   0.33338450  0.97316260  0.91655745
   0.33328219  0.36017074  0.41677590
   0.02688858  0.36017074  0.91677593
   0.63977807  0.97316260  0.41655742
Direct configuration=     6
  -0.00104132 -0.00151783  0.35203607
   0.00104132  0.00151783  0.64796390
   0.00047651  0.00151783  0.14796393
  -0.00047651 -0.00151783  0.85203610
   0.66562536  0.33181551  0.68536941
   0.66770801  0.33485117  0.98129728
   0.66714319  0.33485117  0.48129728
   0.66619018  0.33181551  0.18536935
   0.33229202  0.66514886  0.01870272
   0.33437467  0.66818452  0.31463059
   0.33380985  0.66818452  0.81463059
   0.33285684  0.66514886  0.51870272
   0.30619333  0.00000000  0.25000000
   0.69380667  0.00000000  0.75000000
   0.00007881  0.30651935  0.24986796
  -0.00007881  0.69348065  0.75013204
   0.69355947  0.69348065  0.25013204
   0.30644053  0.30651935  0.74986796
   0.97286002  0.33333334  0.58333331
   0.36047332  0.33333334  0.08333334
   0.66674550  0.63985266  0.58320128
   0.66658787  0.02681399  0.08346537
   0.36022612  0.02681399  0.58346535
   0.97310722  0.63985266  0.08320130
   0.63952665  0.66666669  0.91666669
   0.02714000  0.66666669  0.41666666
   0.33341216  0.97318604  0.91653465
   0.33325453  0.36014731  0.41679869
   0.02689280  0.36014731  0.91679872
   0.63977385  0.97318604  0.41653462
Direct configuration=     7
  -0.00105740 -0.00150235  0.35202824
   0.00105740  0.00150235  0.64797173
   0.00044495  0.00150235  0.14797176
  -0.00044495 -0.00150235  0.85202827
   0.66560929  0.33183099  0.68536159
   0.66772409  0.33483569  0.98130510
   0.66711164  0.33483569  0.48130510
   0.66622174  0.33183099  0.18536153
   0.33227594  0.66516434  0.01869490
   0.33439074  0.66816904  0.31463841
   0.33377829  0.66816904  0.81463841
   0.33288839  0.66516434  0.51869490
   0.30615459  0.00000000  0.25000000
   0.69384541  0.00000000  0.75000000
   0.00011164  0.30654716  0.24984091
  -0.00011164  0.69345284  0.75015909
   0.69356448  0.69345284  0.25015909
   0.30643552  0.30654716  0.74984091
   0.97282128  0.33333334  0.58333331
   0.36051207  0.33333334  0.08333334
   0.66677832  0.63988047  0.58317422
   0.66655505  0.02678617  0.08349243
   0.36023113  0.02678617  0.58349240
   0.97310221  0.63988047  0.08317424
   0.63948791  0.66666669  0.91666669
   0.02717874  0.66666669  0.41666666
   0.33344498  0.97321385  0.91650760
   0.33322171  0.36011950  0.41682575
   0.02689781  0.36011950  0.91682578
   0.63976884  0.97321385  0.41650757
Direct configuration=     8
  -0.00101973 -0.00150342  0.35203058
   0.00101973  0.00150342  0.64796939
   0.00048370  0.00150342  0.14796942
  -0.00048370 -0.00150342  0.85203061
   0.66564696  0.33182992  0.68536392
   0.66768641  0.33483676  0.98130276
   0.66715038  0.33483676  0.48130276
   0.66618299  0.33182992  0.18536387
   0.33231362  0.66516327  0.01869724
   0.33435307  0.66817011  0.31463608
   0.33381704  0.66817011  0.81463608
   0.33284965  0.66516327  0.51869724
   0.30615043  0.00000000  0.25000000
   0.69384957  0.00000000  0.75000000
   0.00014954  0.30657075  0.24982406
  -0.00014954  0.69342925  0.75017594
   0.69357880  0.69342925  0.25017594
   0.30642120  0.30657075  0.74982406
   0.97281712  0.33333334  0.58333331
   0.36051623  0.33333334  0.08333334
   0.66681623  0.63990406  0.58315738
   0.66651714  0.02676259  0.08350927
   0.36024546  0.02676259  0.58350925
   0.97308789  0.63990406  0.08315740
   0.63948374  0.66666669  0.91666669
   0.02718290  0.66666669  0.41666666
   0.33348289  0.97323743  0.91649075
   0.33318380  0.36009591  0.41684259
   0.02691213  0.36009591  0.91684262
   0.63975452  0.97323743  0.41649072
Direct configuration=     9
  -0.00101001 -0.00150370  0.35203118
   0.00101001  0.00150370  0.64796879
   0.00049369  0.00150370  0.14796882
  -0.00049369 -0.00150370  0.85203121
   0.66565668  0.33182964  0.68536453
   0.66767670  0.33483704  0.98130216
   0.66716037  0.33483704  0.48130216
   0.66617300  0.33182964  0.18536447
   0.33232333  0.66516299  0.01869784
   0.33434335  0.66817039  0.31463547
   0.33382703  0.66817039  0.81463547
   0.33283966  0.66516299  0.51869784
   0.30614936  0.00000000  0.25000000
   0.69385064  0.00000000  0.75000000
   0.00015932  0.30657683  0.24981972
  -0.00015932  0.69342317  0.75018028
   0.69358249  0.69342317  0.25018028
   0.30641751  0.30657683  0.74981972
   0.97281604  0.33333334  0.58333331
   0.36051730  0.33333334  0.08333334
   0.66682601  0.63991014  0.58315303
   0.66650737  0.02675651  0.08351362
   0.36024915  0.02675651  0.58351360
   0.97308419  0.63991014  0.08315305
   0.63948267  0.66666669  0.91666669
   0.02718398  0.66666669  0.41666666
   0.33349266  0.97324351  0.91648640
   0.33317402  0.36008983  0.41684694
   0.02691583  0.36008983  0.91684697
   0.63975082  0.97324351  0.41648637
Direct configuration=    10
  -0.00101099 -0.00150367  0.35203112
   0.00101099  0.00150367  0.64796885
   0.00049268  0.00150367  0.14796888
  -0.00049268 -0.00150367  0.85203115
   0.66565569  0.33182967  0.68536447
   0.66767768  0.33483701  0.98130222
   0.66715936  0.33483701  0.48130222
   0.66617401  0.33182967  0.18536441
   0.33232235  0.66516302  0.01869778
   0.33434434  0.66817036  0.31463553
   0.33382602  0.66817036  0.81463553
   0.33284067  0.66516302  0.51869778
   0.30614947  0.00000000  0.25000000
   0.69385053  0.00000000  0.75000000
   0.00015833  0.30657621  0.24982016
  -0.00015833  0.69342379  0.75017984
   0.69358212  0.69342379  0.25017984
   0.30641788  0.30657621  0.74982016
   0.97281615  0.33333334  0.58333331
   0.36051719  0.33333334  0.08333334
   0.66682502  0.63990953  0.58315347
   0.66650836  0.02675712  0.08351318
   0.36024878  0.02675712  0.58351316
   0.97308457  0.63990953  0.08315349
   0.63948278  0.66666669  0.91666669
   0.02718387  0.66666669  0.41666666
   0.33349167  0.97324290  0.91648684
   0.33317501  0.36009045  0.41684650
   0.02691545  0.36009045  0.91684653
   0.63975120  0.97324290  0.41648681
Direct configuration=    11
  -0.00101038 -0.00150369  0.35203116
   0.00101038  0.00150369  0.64796881
   0.00049331  0.00150369  0.14796884
  -0.00049331 -0.00150369  0.85203119
   0.66565631  0.33182966  0.68536450
   0.66767707  0.33483703  0.98130218
   0.66716000  0.33483703  0.48130218
   0.66617338  0.33182966  0.18536445
   0.33232296  0.66516300  0.01869782
   0.33434372  0.66817037  0.31463550
   0.33382665  0.66817037  0.81463550
   0.33284003  0.66516300  0.51869782
   0.30614940  0.00000000  0.25000000
   0.69385060  0.00000000  0.75000000
   0.00015895  0.30657660  0.24981988
  -0.00015895  0.69342340  0.75018012
   0.69358235  0.69342340  0.25018012
   0.30641765  0.30657660  0.74981988
   0.97281608  0.33333334  0.58333331
   0.36051726  0.33333334  0.08333334
   0.66682564  0.63990991  0.58315320
   0.66650774  0.02675674  0.08351345
   0.36024901  0.02675674  0.58351343
   0.97308433  0.63990991  0.08315322
   0.63948271  0.66666669  0.91666669
   0.02718394  0.66666669  0.41666666
   0.33349229  0.97324328  0.91648657
   0.33317439  0.36009006  0.41684677
   0.02691569  0.36009006  0.91684680
   0.63975096  0.97324328  0.41648654
Direct configuration=    12
  -0.00101069 -0.00150368  0.35203114
   0.00101069  0.00150368  0.64796883
   0.00049299  0.00150368  0.14796886
  -0.00049299 -0.00150368  0.85203117
   0.66565600  0.33182966  0.68536449
   0.66767737  0.33483702  0.98130220
   0.66715968  0.33483702  0.48130220
   0.66617370  0.33182966  0.18536443
   0.33232266  0.66516301  0.01869780
   0.33434403  0.66817037  0.31463551
   0.33382633  0.66817037  0.81463551
   0.33284035  0.66516301  0.51869780
   0.30614943  0.00000000  0.25000000
   0.69385057  0.00000000  0.75000000
   0.00015864  0.30657640  0.24982002
  -0.00015864  0.69342360  0.75017998
   0.69358224  0.69342360  0.25017998
   0.30641776  0.30657640  0.74982002
   0.97281612  0.33333334  0.58333331
   0.36051723  0.33333334  0.08333334
   0.66682533  0.63990972  0.58315333
   0.66650805  0.02675693  0.08351332
   0.36024889  0.02675693  0.58351329
   0.97308445  0.63990972  0.08315336
   0.63948275  0.66666669  0.91666669
   0.02718390  0.66666669  0.41666666
   0.33349198  0.97324309  0.91648671
   0.33317470  0.36009025  0.41684664
   0.02691557  0.36009025  0.91684667
   0.63975108  0.97324309  0.41648668
Direct configuration=    13
  -0.00101052 -0.00150368  0.35203115
   0.00101052  0.00150368  0.64796882
   0.00049317  0.00150368  0.14796885
  -0.00049317 -0.00150368  0.85203118
   0.66565617  0.33182966  0.68536450
   0.66767720  0.33483703  0.98130219
   0.66715985  0.33483703  0.48130219
   0.66617352  0.33182966  0.18536444
   0.33232283  0.66516300  0.01869781
   0.33434386  0.66817037  0.31463550
   0.33382651  0.66817037  0.81463550
   0.33284018  0.66516300  0.51869781
   0.30614941  0.00000000  0.25000000
   0.69385059  0.00000000  0.75000000
   0.00015881  0.30657651  0.24981994
  -0.00015881  0.69342349  0.75018006
   0.69358230  0.69342349  0.25018006
   0.30641770  0.30657651  0.74981994
   0.97281610  0.33333334  0.58333331
   0.36051724  0.33333334  0.08333334
   0.66682550  0.63990982  0.58315326
   0.66650788  0.02675682  0.08351339
   0.36024896  0.02675682  0.58351337
   0.97308439  0.63990982  0.08315328
   0.63948273  0.66666669  0.91666669
   0.02718392  0.66666669  0.41666666
   0.33349215  0.97324320  0.91648663
   0.33317453  0.36009015  0.41684671
   0.02691563  0.36009015  0.91684674
   0.63975101  0.97324320  0.41648660
Direct configuration=    14
  -0.00101060 -0.00150368  0.35203115
   0.00101060  0.00150368  0.64796882
   0.00049308  0.00150368  0.14796885
  -0.00049308 -0.00150368  0.85203118
   0.66565608  0.33182966  0.68536449
   0.66767729  0.33483702  0.98130220
   0.66715977  0.33483702  0.48130220
   0.66617361  0.33182966  0.18536443
   0.33232274  0.66516301  0.01869780
   0.33434395  0.66817037  0.31463551
   0.33382642  0.66817037  0.81463551
   0.33284026  0.66516301  0.51869780
   0.30614942  0.00000000  0.25000000
   0.69385058  0.00000000  0.75000000
   0.00015873  0.30657646  0.24981998
  -0.00015873  0.69342354  0.75018002
   0.69358227  0.69342354  0.25018002
   0.30641773  0.30657646  0.74981998
   0.97281611  0.33333334  0.58333331
   0.36051723  0.33333334  0.08333334
   0.66682541  0.63990977  0.58315329
   0.66650796  0.02675688  0.08351335
   0.36024892  0.02675688  0.58351333
   0.97308442  0.63990977  0.08315332
   0.63948274  0.66666669  0.91666669
   0.02718391  0.66666669  0.41666666
   0.33349207  0.97324314  0.91648667
   0.33317462  0.36009020  0.41684668
   0.02691560  0.36009020  0.91684671
   0.63975105  0.97324314  0.41648664
Direct configuration=    15
  -0.00101055 -0.00150368  0.35203115
   0.00101055  0.00150368  0.64796882
   0.00049313  0.00150368  0.14796885
  -0.00049313 -0.00150368  0.85203118
   0.66565614  0.33182966  0.68536449
   0.66767724  0.33483703  0.98130219
   0.66715982  0.33483703  0.48130219
   0.66617356  0.33182966  0.18536443
   0.33232279  0.66516300  0.01869781
   0.33434389  0.66817037  0.31463551
   0.33382647  0.66817037  0.81463551
   0.33284021  0.66516300  0.51869781
   0.30614942  0.00000000  0.25000000
   0.69385058  0.00000000  0.75000000
   0.00015878  0.30657649  0.24981996
  -0.00015878  0.69342351  0.75018004
   0.69358229  0.69342351  0.25018004
   0.30641771  0.30657649  0.74981996
   0.97281610  0.33333334  0.58333331
   0.36051724  0.33333334  0.08333334
   0.66682546  0.63990980  0.58315327
   0.66650791  0.02675684  0.08351338
   0.36024894  0.02675684  0.58351335
   0.97308440  0.63990980  0.08315330
   0.63948273  0.66666669  0.91666669
   0.02718392  0.66666669  0.41666666
   0.33349212  0.97324318  0.91648665
   0.33317457  0.36009017  0.41684670
   0.02691562  0.36009017  0.91684673
   0.63975103  0.97324318  0.41648662
Direct configuration=    16
  -0.00101392 -0.00150594  0.35203507
   0.00101392  0.00150594  0.64796490
   0.00049202  0.00150594  0.14796493
  -0.00049202 -0.00150594  0.85203510
   0.66565277  0.33182740  0.68536842
   0.66768060  0.33483928  0.98129827
   0.66715871  0.33483928  0.48129827
   0.66617466  0.33182740  0.18536836
   0.33231943  0.66516075  0.01870173
   0.33434726  0.66817263  0.31463158
   0.33382537  0.66817263  0.81463158
   0.33284132  0.66516075  0.51870173
   0.30615565  0.00000000  0.25000000
   0.69384435  0.00000000  0.75000000
   0.00016148  0.30657631  0.24982058
  -0.00016148  0.69342369  0.75017942
   0.69358517  0.69342369  0.25017942
   0.30641483  0.30657631  0.74982058
   0.97282233  0.33333334  0.58333331
   0.36051101  0.33333334  0.08333334
   0.66682817  0.63990962  0.58315389
   0.66650520  0.02675703  0.08351276
   0.36025183  0.02675703  0.58351274
   0.97308151  0.63990962  0.08315391
   0.63948896  0.66666669  0.91666669
   0.02717769  0.66666669  0.41666666
   0.33349483  0.97324299  0.91648726
   0.33317186  0.36009035  0.41684608
   0.02691851  0.36009035  0.91684611
   0.63974814  0.97324299  0.41648723
Direct configuration=    17
  -0.00101515 -0.00150677  0.35203651
   0.00101515  0.00150677  0.64796346
   0.00049162  0.00150677  0.14796349
  -0.00049162 -0.00150677  0.85203654
   0.66565154  0.33182658  0.68536985
   0.66768184  0.33484011  0.98129683
   0.66715831  0.33484011  0.48129683
   0.66617507  0.33182658  0.18536980
   0.33231819  0.66515992  0.01870317
   0.33434849  0.66817345  0.31463015
   0.33382496  0.66817345  0.81463015
   0.33284172  0.66515992  0.51870317
   0.30615793  0.00000000  0.25000000
   0.69384207  0.00000000  0.75000000
   0.00016247  0.30657624  0.24982080
  -0.00016247  0.69342376  0.75017920
   0.69358623  0.69342376  0.25017920
   0.30641377  0.30657624  0.74982080
   0.97282462  0.33333334  0.58333331
   0.36050873  0.33333334  0.08333334
   0.66682916  0.63990955  0.58315412
   0.66650421  0.02675709  0.08351253
   0.36025289  0.02675709  0.58351251
   0.97308045  0.63990955  0.08315414
   0.63949124  0.66666669  0.91666669
   0.02717541  0.66666669  0.41666666
   0.33349582  0.97324293  0.91648749
   0.33317087  0.36009042  0.41684585
   0.02691957  0.36009042  0.91684588
   0.63974708  0.97324293  0.41648746
Direct configuration=    18
  -0.00101574 -0.00150680  0.35203663
   0.00101574  0.00150680  0.64796334
   0.00049107  0.00150680  0.14796337
  -0.00049107 -0.00150680  0.85203666
   0.66565095  0.33182654  0.68536997
   0.66768242  0.33484015  0.98129671
   0.66715775  0.33484015  0.48129671
   0.66617562  0.33182654  0.18536992
   0.33231761  0.66515988  0.01870329
   0.33434908  0.66817349  0.31463003
   0.33382441  0.66817349  0.81463003
   0.33284228  0.66515988  0.51870329
   0.30615737  0.00000000  0.25000000
   0.69384263  0.00000000  0.75000000
   0.00016388  0.30657434  0.24982043
  -0.00016388  0.69342566  0.75017957
   0.69358954  0.69342566  0.25017957
   0.30641046  0.30657434  0.74982043
   0.97282406  0.33333334  0.58333331
   0.36050929  0.33333334  0.08333334
   0.66683057  0.63990765  0.58315374
   0.66650281  0.02675899  0.08351291
   0.36025620  0.02675899  0.58351288
   0.97307715  0.63990765  0.08315377
   0.63949068  0.66666669  0.91666669
   0.02717597  0.66666669  0.41666666
   0.33349722  0.97324103  0.91648712
   0.33316946  0.36009232  0.41684623
   0.02692287  0.36009232  0.91684626
   0.63974377  0.97324103  0.41648709
Direct configuration=    19
  -0.00101595 -0.00150682  0.35203667
   0.00101595  0.00150682  0.64796330
   0.00049087  0.00150682  0.14796333
  -0.00049087 -0.00150682  0.85203670
   0.66565074  0.33182653  0.68537002
   0.66768263  0.33484016  0.98129667
   0.66715756  0.33484016  0.48129667
   0.66617582  0.33182653  0.18536996
   0.33231740  0.66515987  0.01870333
   0.33434929  0.66817350  0.31462998
   0.33382421  0.66817350  0.81462998
   0.33284247  0.66515987  0.51870333
   0.30615717  0.00000000  0.25000000
   0.69384283  0.00000000  0.75000000
   0.00016438  0.30657367  0.24982030
  -0.00016438  0.69342633  0.75017970
   0.69359071  0.69342633  0.25017970
   0.30640929  0.30657367  0.74982030
   0.97282386  0.33333334  0.58333331
   0.36050949  0.33333334  0.08333334
   0.66683107  0.63990698  0.58315361
   0.66650231  0.02675967  0.08351304
   0.36025737  0.02675967  0.58351301
   0.97307597  0.63990698  0.08315363
   0.63949048  0.66666669  0.91666669
   0.02717616  0.66666669  0.41666666
   0.33349772  0.97324035  0.91648699
   0.33316896  0.36009299  0.41684636
   0.02692405  0.36009299  0.91684639
   0.63974260  0.97324035  0.41648696
Direct configuration=    20
  -0.00101579 -0.00150681  0.35203664
   0.00101579  0.00150681  0.64796333
   0.00049102  0.00150681  0.14796336
  -0.00049102 -0.00150681  0.85203667
   0.66565090  0.33182654  0.68536999
   0.66768248  0.33484015  0.98129670
   0.66715770  0.33484015  0.48129670
   0.66617567  0.33182654  0.18536993
   0.33231755  0.66515988  0.01870330
   0.33434913  0.66817349  0.31463001
   0.33382436  0.66817349  0.81463001
   0.33284233  0.66515988  0.51870330
   0.30615732  0.00000000  0.25000000
   0.69384268  0.00000000  0.75000000
   0.00016401  0.30657417  0.24982040
  -0.00016401  0.69342583  0.75017960
   0.69358984  0.69342583  0.25017960
   0.30641016  0.30657417  0.74982040
   0.97282400  0.33333334  0.58333331
   0.36050934  0.33333334  0.08333334
   0.66683070  0.63990748  0.58315371
   0.66650268  0.02675917  0.08351294
   0.36025650  0.02675917  0.58351292
   0.97307684  0.63990748  0.08315373
   0.63949063  0.66666669  0.91666669
   0.02717602  0.66666669  0.41666666
   0.33349735  0.97324085  0.91648708
   0.33316933  0.36009249  0.41684626
   0.02692318  0.36009249  0.91684629
   0.63974347  0.97324085  0.41648705
Direct configuration=    21
  -0.00101587 -0.00150681  0.35203666
   0.00101587  0.00150681  0.64796331
   0.00049094  0.00150681  0.14796334
  -0.00049094 -0.00150681  0.85203669
   0.66565082  0.33182653  0.68537000
   0.66768256  0.33484015  0.98129668
   0.66715763  0.33484015  0.48129668
   0.66617574  0.33182653  0.18536994
   0.33231747  0.66515988  0.01870332
   0.33434921  0.66817350  0.31463000
   0.33382429  0.66817350  0.81463000
   0.33284240  0.66515988  0.51870332
   0.30615724  0.00000000  0.25000000
   0.69384276  0.00000000  0.75000000
   0.00016419  0.30657392  0.24982035
  -0.00016419  0.69342608  0.75017965
   0.69359028  0.69342608  0.25017965
   0.30640972  0.30657392  0.74982035
   0.97282393  0.33333334  0.58333331
   0.36050941  0.33333334  0.08333334
   0.66683088  0.63990723  0.58315366
   0.66650249  0.02675942  0.08351299
   0.36025693  0.02675942  0.58351297
   0.97307641  0.63990723  0.08315368
   0.63949056  0.66666669  0.91666669
   0.02717609  0.66666669  0.41666666
   0.33349754  0.97324060  0.91648703
   0.33316915  0.36009274  0.41684631
   0.02692361  0.36009274  0.91684634
   0.63974304  0.97324060  0.41648700
Direct configuration=    22
  -0.00101585 -0.00150681  0.35203665
   0.00101585  0.00150681  0.64796332
   0.00049096  0.00150681  0.14796335
  -0.00049096 -0.00150681  0.85203668
   0.66565084  0.33182653  0.68537000
   0.66768253  0.33484015  0.98129669
   0.66715765  0.33484015  0.48129669
   0.66617572  0.33182653  0.18536994
   0.33231750  0.66515988  0.01870331
   0.33434919  0.66817350  0.31463000
   0.33382431  0.66817350  0.81463000
   0.33284238  0.66515988  0.51870331
   0.30615726  0.00000000  0.25000000
   0.69384274  0.00000000  0.75000000
   0.00016414  0.30657399  0.24982036
  -0.00016414  0.69342601  0.75017964
   0.69359016  0.69342601  0.25017964
   0.30640984  0.30657399  0.74982036
   0.97282395  0.33333334  0.58333331
   0.36050939  0.33333334  0.08333334
   0.66683083  0.63990730  0.58315367
   0.66650254  0.02675935  0.08351298
   0.36025682  0.02675935  0.58351295
   0.97307653  0.63990730  0.08315370
   0.63949058  0.66666669  0.91666669
   0.02717607  0.66666669  0.41666666
   0.33349749  0.97324067  0.91648705
   0.33316920  0.36009267  0.41684630
   0.02692349  0.36009267  0.91684633
   0.63974315  0.97324067  0.41648702
Direct configuration=    23
  -0.00101586 -0.00150681  0.35203666
   0.00101586  0.00150681  0.64796331
   0.00049095  0.00150681  0.14796334
  -0.00049095 -0.00150681  0.85203669
   0.66565083  0.33182653  0.68537000
   0.66768255  0.33484015  0.98129669
   0.66715764  0.33484015  0.48129669
   0.66617574  0.33182653  0.18536994
   0.33231748  0.66515988  0.01870331
   0.33434920  0.66817350  0.31463000
   0.33382429  0.66817350  0.81463000
   0.33284239  0.66515988  0.51870331
   0.30615725  0.00000000  0.25000000
   0.69384275  0.00000000  0.75000000
   0.00016417  0.30657395  0.24982035
  -0.00016417  0.69342605  0.75017965
   0.69359023  0.69342605  0.25017965
   0.30640977  0.30657395  0.74982035
   0.97282394  0.33333334  0.58333331
   0.36050941  0.33333334  0.08333334
   0.66683086  0.63990726  0.58315367
   0.66650251  0.02675939  0.08351298
   0.36025688  0.02675939  0.58351296
   0.97307646  0.63990726  0.08315369
   0.63949057  0.66666669  0.91666669
   0.02717608  0.66666669  0.41666666
   0.33349752  0.97324063  0.91648704
   0.33316917  0.36009271  0.41684630
   0.02692356  0.36009271  0.91684633
   0.63974309  0.97324063  0.41648701
Direct configuration=    24
  -0.00101586 -0.00150681  0.35203666
   0.00101586  0.00150681  0.64796331
   0.00049095  0.00150681  0.14796334
  -0.00049095 -0.00150681  0.85203669
   0.66565083  0.33182653  0.68537000
   0.66768254  0.33484015  0.98129669
   0.66715764  0.33484015  0.48129669
   0.66617573  0.33182653  0.18536994
   0.33231749  0.66515988  0.01870331
   0.33434920  0.66817350  0.31463000
   0.33382430  0.66817350  0.81463000
   0.33284239  0.66515988  0.51870331
   0.30615726  0.00000000  0.25000000
   0.69384274  0.00000000  0.75000000
   0.00016416  0.30657396  0.24982036
  -0.00016416  0.69342604  0.75017964
   0.69359021  0.69342604  0.25017964
   0.30640979  0.30657396  0.74982036
   0.97282394  0.33333334  0.58333331
   0.36050940  0.33333334  0.08333334
   0.66683085  0.63990727  0.58315367
   0.66650252  0.02675938  0.08351298
   0.36025686  0.02675938  0.58351296
   0.97307648  0.63990727  0.08315369
   0.63949057  0.66666669  0.91666669
   0.02717608  0.66666669  0.41666666
   0.33349751  0.97324065  0.91648704
   0.33316918  0.36009270  0.41684630
   0.02692354  0.36009270  0.91684633
   0.63974311  0.97324065  0.41648701
Direct configuration=    25
  -0.00101586 -0.00150681  0.35203666
   0.00101586  0.00150681  0.64796331
   0.00049095  0.00150681  0.14796334
  -0.00049095 -0.00150681  0.85203669
   0.66565083  0.33182653  0.68537000
   0.66768255  0.33484015  0.98129669
   0.66715764  0.33484015  0.48129669
   0.66617573  0.33182653  0.18536994
   0.33231748  0.66515988  0.01870331
   0.33434920  0.66817350  0.31463000
   0.33382430  0.66817350  0.81463000
   0.33284239  0.66515988  0.51870331
   0.30615725  0.00000000  0.25000000
   0.69384275  0.00000000  0.75000000
   0.00016417  0.30657395  0.24982035
  -0.00016417  0.69342605  0.75017965
   0.69359022  0.69342605  0.25017965
   0.30640978  0.30657395  0.74982035
   0.97282394  0.33333334  0.58333331
   0.36050940  0.33333334  0.08333334
   0.66683086  0.63990727  0.58315367
   0.66650252  0.02675938  0.08351298
   0.36025688  0.02675938  0.58351296
   0.97307647  0.63990727  0.08315369
   0.63949057  0.66666669  0.91666669
   0.02717608  0.66666669  0.41666666
   0.33349751  0.97324064  0.91648704
   0.33316917  0.36009271  0.41684630
   0.02692355  0.36009271  0.91684633
   0.63974310  0.97324064  0.41648701
Direct configuration=    26
  -0.00101586 -0.00150681  0.35203666
   0.00101586  0.00150681  0.64796331
   0.00049095  0.00150681  0.14796334
  -0.00049095 -0.00150681  0.85203669
   0.66565083  0.33182653  0.68537000
   0.66768255  0.33484015  0.98129669
   0.66715764  0.33484015  0.48129669
   0.66617573  0.33182653  0.18536994
   0.33231748  0.66515988  0.01870331
   0.33434920  0.66817350  0.31463000
   0.33382430  0.66817350  0.81463000
   0.33284239  0.66515988  0.51870331
   0.30615725  0.00000000  0.25000000
   0.69384275  0.00000000  0.75000000
   0.00016417  0.30657395  0.24982035