       N       E                     dE             d eps       ncg     rms          rms(c)
DAV:   1     0.624423574803E+02    0.62442E+02   -0.10417E+04 22792   0.957E+02
DAV:   2    -0.379736311798E+02   -0.10042E+03   -0.94077E+02 30788   0.149E+02
DAV:   3    -0.426414561854E+02   -0.46678E+01   -0.46009E+01 29472   0.311E+01
DAV:   4    -0.427268648785E+02   -0.85409E-01   -0.85199E-01 28476   0.523E+00
DAV:   5    -0.427292121442E+02   -0.23473E-02   -0.23459E-02 29148   0.743E-01    0.598E+00
RMM:   6    -0.421215084175E+02    0.60770E+00   -0.31078E-01 22792   0.220E+00    0.351E+00
RMM:   7    -0.418439185540E+02    0.27759E+00   -0.63825E-01 22792   0.317E+00    0.289E-01
RMM:   8    -0.418462439781E+02   -0.23254E-02   -0.19494E-02 22916   0.612E-01    0.339E-02
RMM:   9    -0.418464198306E+02   -0.17585E-03   -0.12232E-03 24264   0.156E-01    0.218E-02
RMM:  10    -0.418464516962E+02   -0.31866E-04   -0.96976E-05 22848   0.545E-02    0.126E-02
RMM:  11    -0.418464502542E+02    0.14420E-05   -0.13498E-05 20706   0.170E-02    0.254E-03
RMM:  12    -0.418464495775E+02    0.67671E-06   -0.79871E-07 14432   0.556E-03
   1 F= -.41846450E+02 E0= -.41846450E+02  d E =-.418464E+02
       N       E                     dE             d eps       ncg     rms          rms(c)
DAV:   1    -0.418478382990E+02   -0.13880E-02   -0.18840E-02 28596   0.688E-01    0.266E-02
RMM:   2    -0.418479388849E+02   -0.10059E-03   -0.11179E-03 22808   0.173E-01    0.246E-02
RMM:   3    -0.418479417481E+02   -0.28631E-05   -0.59074E-05 23080   0.451E-02    0.107E-02
RMM:   4    -0.418479455452E+02   -0.37971E-05   -0.67103E-06 21983   0.141E-02    0.409E-03
RMM:   5    -0.418479457292E+02   -0.18396E-06   -0.59462E-07 13336   0.426E-03
   2 F= -.41847946E+02 E0= -.41847946E+02  d E =-.149615E-02
       N       E                     dE             d eps       ncg     rms          rms(c)
DAV:   1    -0.418480068959E+02   -0.61351E-04   -0.13192E-03 27898   0.182E-01    0.706E-03
RMM:   2    -0.418480138047E+02   -0.69088E-05   -0.67926E-05 22750   0.448E-02    0.843E-04
RMM:   3    -0.418480141817E+02   -0.37704E-06   -0.35095E-06 15231   0.980E-03    0.116E-04
RMM:   4    -0.418480142361E+02   -0.54388E-07   -0.38304E-07 11905   0.387E-03
   3 F= -.41848014E+02 E0= -.41848014E+02  d E =-.156466E-02
       N       E                     dE             d eps       ncg     rms          rms(c)
DAV:   1    -0.418480142455E+02   -0.63805E-07   -0.11525E-07 18386   0.216E-03    0.162E-04
RMM:   2    -0.418480142497E+02   -0.41786E-08   -0.10513E-08  2982   0.976E-04    0.146E-04
RMM:   3    -0.418480142501E+02   -0.36572E-09   -0.44486E-10  1393   0.843E-04    0.106E-04
RMM:   4    -0.418480142508E+02   -0.74571E-09    0.00000E+00  1095   0.837E-04
   4 F= -.41848014E+02 E0= -.41848014E+02  d E =-.156467E-02
       N       E                     dE             d eps       ncg     rms          rms(c)
DAV:   1    -0.418480142565E+02   -0.64006E-08   -0.23894E-08 15128   0.923E-04    0.316E-05
RMM:   2    -0.418480142545E+02    0.19336E-08    0.00000E+00  1045   0.434E-04    0.277E-05
RMM:   3    -0.418480142558E+02   -0.12634E-08    0.00000E+00   735   0.438E-04    0.203E-05
RMM:   4    -0.418480142553E+02    0.52501E-09    0.00000E+00   658   0.437E-04
   5 F= -.41848014E+02 E0= -.41848014E+02  d E =-.156468E-02
