 vasp.5.3.5 31Mar14 (build Nov 12 2015 11:19:23) complex                         
 executed on           CrayXC_GCC date 2016.06.01  19:04:28
 running on   24 total cores
 distrk:  each k-point on   24 cores,    1 groups
 distr:  one band on NCORES_PER_BAND=  12 cores,    2 groups


--------------------------------------------------------------------------------------------------------


 INCAR:
 POTCAR:   PAW_GGA Si 05Jan2001                   

 ----------------------------------------------------------------------------- 
|                                                                             |
|           W    W    AA    RRRRR   N    N  II  N    N   GGGG   !!!           |
|           W    W   A  A   R    R  NN   N  II  NN   N  G    G  !!!           |
|           W    W  A    A  R    R  N N  N  II  N N  N  G       !!!           |
|           W WW W  AAAAAA  RRRRR   N  N N  II  N  N N  G  GGG   !            |
|           WW  WW  A    A  R   R   N   NN  II  N   NN  G    G                |
|           W    W  A    A  R    R  N    N  II  N    N   GGGG   !!!           |
|                                                                             |
|      For optimal performance we recommend to set                            |
|        NCORE= 4 - approx SQRT( number of cores)                             |
|      NCORE specifies how many cores store one orbital (NPAR=cpu/NCORE).     |
|      This setting can  greatly improve the performance of VASP for DFT.     |
|      The default, NPAR=number of cores might be grossly inefficient         |
|      on modern multi-core architectures or massively parallel machines.     |
|      Do your own testing !!!!                                               |
|      Unfortunately you need to use the default for GW and RPA calculations. |
|      (for HF NCORE is supported but not extensively tested yet)             |
|                                                                             |
 ----------------------------------------------------------------------------- 

 POTCAR:   PAW_GGA Si 05Jan2001                   
   VRHFIN =Si: s2p2                                                             
   LEXCH  = 91                                                                  
   EATOM  =   103.3076 eV,    7.5929 Ry                                         
                                                                                
   TITEL  = PAW_GGA Si 05Jan2001                                                
   LULTRA =        F    use ultrasoft PP ?                                      
   IUNSCR =        1    unscreen: 0-lin 1-nonlin 2-no                           
   RPACOR =    1.500    partial core radius                                     
   POMASS =   28.085; ZVAL   =    4.000    mass and valenz                      
   RCORE  =    1.900    outmost cutoff radius                                   
   RWIGS  =    2.480; RWIGS  =    1.312    wigner-seitz radius (au A)           
   ENMAX  =  245.435; ENMIN  =  184.076 eV                                      
   ICORE  =        2    local potential                                         
   LCOR   =        T    correct aug charges                                     
   LPAW   =        T    paw PP                                                  
   EAUG   =  322.069                                                            
   DEXC   =    -.001                                                            
   RMAX   =    2.943    core radius for proj-oper                               
   RAUG   =    1.300    factor for augmentation sphere                          
   RDEP   =    1.993    core radius for depl-charge                             
   QCUT   =   -4.247; QGAM   =    8.494    optimization parameters              
                                                                                
   Description                                                                  
     l     E      TYP  RCUT    TYP  RCUT                                        
     0   .000     23  1.900                                                     
     0   .000     23  1.900                                                     
     1   .000     23  1.900                                                     
     1   .000     23  1.900                                                     
     2   .000      7  1.900                                                     
  local pseudopotential read in
  partial core-charges read in
  atomic valenz-charges read in
  non local Contribution for L=           0  read in
    real space projection operators read in
  non local Contribution for L=           0  read in
    real space projection operators read in
  non local Contribution for L=           1  read in
    real space projection operators read in
  non local Contribution for L=           1  read in
    real space projection operators read in
    PAW grid and wavefunctions read in

   number of l-projection  operators is LMAX  =           4
   number of lm-projection operators is LMMAX =           8


 ----------------------------------------------------------------------------- 
|                                                                             |
|  ADVICE TO THIS USER RUNNING 'VASP/VAMP'   (HEAR YOUR MASTER'S VOICE ...):  |
|                                                                             |
|      You enforced a specific xc-type in the INCAR file,                     |
|      a different type was found on the POTCAR file                          |
|          I HOPE YOU KNOW, WHAT YOU ARE  DOING                               |
|                                                                             |
 ----------------------------------------------------------------------------- 

 PAW_GGA Si 05Jan2001                   :
 energy of atom  1       EATOM= -103.3076
 kinetic energy error for atom=    0.0012 (will be added to EATOM!!)


 POSCAR: Si8                                     
  positions in direct lattice
  No initial velocities read in
 exchange correlation table for  LEXCH =       14
   RHO(1)=    0.500       N(1)  =     2000
   RHO(2)=  100.500       N(2)  =     4000



--------------------------------------------------------------------------------------------------------


 ion  position               nearest neighbor table
   1  0.000  0.000  0.000-   2 2.34   8 2.34   6 2.35   4 2.35
   2  0.750  0.750  0.250-   1 2.34   7 2.34   5 2.35   3 2.35
   3  0.000  0.500  0.500-   4 2.34   6 2.34   2 2.35   8 2.35
   4  0.750  0.250  0.750-   3 2.34   5 2.34   1 2.35   7 2.35
   5  0.500  0.000  0.500-   4 2.34   6 2.34   2 2.35   8 2.35
   6  0.250  0.750  0.750-   3 2.34   5 2.34   1 2.35   7 2.35
   7  0.500  0.500  0.000-   2 2.34   8 2.34   6 2.35   4 2.35
   8  0.250  0.250  0.250-   1 2.34   7 2.34   5 2.35   3 2.35

  LATTYP: Found a simple monoclinic cell.
 ALAT       =     7.6087202056
 B/A-ratio  =     0.7142401647
 C/A-ratio  =     1.5779252941
 COS(beta)  =    -0.9473985381
  
  Lattice vectors:
  
 A1 = (  -5.3529367693,  -5.4072813050,   0.0000000000)
 A2 = (   0.0000000000,   0.0000000000,  -5.4344535729)
 A3 = (  10.7330458064,   5.3801090371,   0.0000000000)


Analysis of symmetry for initial positions (statically):
=====================================================================
 Subroutine PRICEL returns following result:
 
  LATTYP: Found a base centered monoclinic cell.
 ALAT       =     5.3801776535
 B/A-ratio  =     1.0100881277
 C/A-ratio  =     2.5455247921
 COS(beta)  =    -0.6895637771
  
  Lattice vectors:
  
 A1 = (   2.6900545186,  -0.0135861339,  -2.7172267864)
 A2 = (   2.6900545186,  -0.0135861339,   2.7172267864)
 A3 = ( -13.4366864589,  -2.6492961168,   0.0000000000)
 
   4 primitive cells build up your supercell.
 

 Routine SETGRP: Setting up the symmetry group for a 
 simple monoclinic supercell.


 Subroutine GETGRP returns: Found  4 space group operations
 (whereof  2 operations were pure point group operations)
 out of a pool of  4 trial point group operations.


The static configuration has the point symmetry C_2 .
 The point group associated with its full space group is C_2h.


Analysis of symmetry for dynamics (positions and initial velocities):
=====================================================================
 Subroutine PRICEL returns following result:
 
  LATTYP: Found a base centered monoclinic cell.
 ALAT       =     5.3801776535
 B/A-ratio  =     1.0100881277
 C/A-ratio  =     2.5455247921
 COS(beta)  =    -0.6895637771
  
  Lattice vectors:
  
 A1 = (   2.6900545186,  -0.0135861339,  -2.7172267864)
 A2 = (   2.6900545186,  -0.0135861339,   2.7172267864)
 A3 = ( -13.4366864589,  -2.6492961168,   0.0000000000)
 
   4 primitive cells build up your supercell.
 

 Routine SETGRP: Setting up the symmetry group for a 
 simple monoclinic supercell.


 Subroutine GETGRP returns: Found  4 space group operations
 (whereof  2 operations were pure point group operations)
 out of a pool of  4 trial point group operations.


The dynamic configuration has the point symmetry C_2 .
 The point group associated with its full space group is C_2h.


 KPOINTS: Automatic                               

Automatic generation of k-mesh.
Space group operators:
 irot       det(A)        alpha          n_x          n_y          n_z        tau_x        tau_y        tau_z
    1     1.000000     0.000000     1.000000     0.000000     0.000000    -0.000000    -0.000000     0.000000
    2     1.000000   180.000000     0.000000     0.000000     1.000000    -0.000000    -0.000000     0.000000
    3    -1.000000     0.000000     1.000000     0.000000     0.000000    -0.750000    -0.250000    -0.250000
    4    -1.000000   180.000000     0.000000     0.000000     1.000000    -0.750000    -0.250000    -0.250000
 
 Subroutine IBZKPT returns following result:
 ===========================================
 
 Found    518 irreducible k-points:
 
 Following reciprocal coordinates:
            Coordinates               Weight
  0.000000  0.000000  0.000000      1.000000
  0.083333  0.000000  0.000000      2.000000
  0.166667  0.000000  0.000000      2.000000
  0.250000  0.000000  0.000000      2.000000
  0.333333  0.000000  0.000000      2.000000
  0.416667  0.000000  0.000000      2.000000
  0.500000  0.000000  0.000000      1.000000
  0.000000  0.083333  0.000000      2.000000
  0.083333  0.083333  0.000000      2.000000
  0.166667  0.083333  0.000000      2.000000
  0.250000  0.083333  0.000000      2.000000
  0.333333  0.083333  0.000000      2.000000
  0.416667  0.083333  0.000000      2.000000
  0.500000  0.083333  0.000000      2.000000
 -0.416667  0.083333  0.000000      2.000000
 -0.333333  0.083333  0.000000      2.000000
 -0.250000  0.083333  0.000000      2.000000
 -0.166667  0.083333  0.000000      2.000000
 -0.083333  0.083333  0.000000      2.000000
  0.000000  0.166667  0.000000      2.000000
  0.083333  0.166667  0.000000      2.000000
  0.166667  0.166667  0.000000      2.000000
  0.250000  0.166667  0.000000      2.000000
  0.333333  0.166667  0.000000      2.000000
  0.416667  0.166667  0.000000      2.000000
  0.500000  0.166667  0.000000      2.000000
 -0.416667  0.166667  0.000000      2.000000
 -0.333333  0.166667  0.000000      2.000000
 -0.250000  0.166667  0.000000      2.000000
 -0.166667  0.166667  0.000000      2.000000
 -0.083333  0.166667  0.000000      2.000000
  0.000000  0.250000  0.000000      2.000000
  0.083333  0.250000  0.000000      2.000000
  0.166667  0.250000  0.000000      2.000000
  0.250000  0.250000  0.000000      2.000000
  0.333333  0.250000  0.000000      2.000000
  0.416667  0.250000  0.000000      2.000000
  0.500000  0.250000  0.000000      2.000000
 -0.416667  0.250000  0.000000      2.000000
 -0.333333  0.250000  0.000000      2.000000
 -0.250000  0.250000  0.000000      2.000000
 -0.166667  0.250000  0.000000      2.000000
 -0.083333  0.250000  0.000000      2.000000
  0.000000  0.333333  0.000000      2.000000
  0.083333  0.333333  0.000000      2.000000
  0.166667  0.333333  0.000000      2.000000
  0.250000  0.333333  0.000000      2.000000
  0.333333  0.333333  0.000000      2.000000
  0.416667  0.333333  0.000000      2.000000
  0.500000  0.333333  0.000000      2.000000
 -0.416667  0.333333  0.000000      2.000000
 -0.333333  0.333333  0.000000      2.000000
 -0.250000  0.333333  0.000000      2.000000
 -0.166667  0.333333  0.000000      2.000000
 -0.083333  0.333333  0.000000      2.000000
  0.000000  0.416667  0.000000      2.000000
  0.083333  0.416667  0.000000      2.000000
  0.166667  0.416667  0.000000      2.000000
  0.250000  0.416667  0.000000      2.000000
  0.333333  0.416667  0.000000      2.000000
  0.416667  0.416667  0.000000      2.000000
  0.500000  0.416667  0.000000      2.000000
 -0.416667  0.416667  0.000000      2.000000
 -0.333333  0.416667  0.000000      2.000000
 -0.250000  0.416667  0.000000      2.000000
 -0.166667  0.416667  0.000000      2.000000
 -0.083333  0.416667  0.000000      2.000000
  0.000000  0.500000  0.000000      1.000000
  0.083333  0.500000  0.000000      2.000000
  0.166667  0.500000  0.000000      2.000000
  0.250000  0.500000  0.000000      2.000000
  0.333333  0.500000  0.000000      2.000000
  0.416667  0.500000  0.000000      2.000000
  0.500000  0.500000  0.000000      1.000000
  0.000000  0.000000  0.083333      2.000000
  0.083333  0.000000  0.083333      4.000000
  0.166667  0.000000  0.083333      4.000000
  0.250000  0.000000  0.083333      4.000000
  0.333333  0.000000  0.083333      4.000000
  0.416667  0.000000  0.083333      4.000000
  0.500000  0.000000  0.083333      2.000000
  0.000000  0.083333  0.083333      4.000000
  0.083333  0.083333  0.083333      4.000000
  0.166667  0.083333  0.083333      4.000000
  0.250000  0.083333  0.083333      4.000000
  0.333333  0.083333  0.083333      4.000000
  0.416667  0.083333  0.083333      4.000000
  0.500000  0.083333  0.083333      4.000000
 -0.416667  0.083333  0.083333      4.000000
 -0.333333  0.083333  0.083333      4.000000
 -0.250000  0.083333  0.083333      4.000000
 -0.166667  0.083333  0.083333      4.000000
 -0.083333  0.083333  0.083333      4.000000
  0.000000  0.166667  0.083333      4.000000
  0.083333  0.166667  0.083333      4.000000
  0.166667  0.166667  0.083333      4.000000
  0.250000  0.166667  0.083333      4.000000
  0.333333  0.166667  0.083333      4.000000
  0.416667  0.166667  0.083333      4.000000
  0.500000  0.166667  0.083333      4.000000
 -0.416667  0.166667  0.083333      4.000000
 -0.333333  0.166667  0.083333      4.000000
 -0.250000  0.166667  0.083333      4.000000
 -0.166667  0.166667  0.083333      4.000000
 -0.083333  0.166667  0.083333      4.000000
  0.000000  0.250000  0.083333      4.000000
  0.083333  0.250000  0.083333      4.000000
  0.166667  0.250000  0.083333      4.000000
  0.250000  0.250000  0.083333      4.000000
  0.333333  0.250000  0.083333      4.000000
  0.416667  0.250000  0.083333      4.000000
  0.500000  0.250000  0.083333      4.000000
 -0.416667  0.250000  0.083333      4.000000
 -0.333333  0.250000  0.083333      4.000000
 -0.250000  0.250000  0.083333      4.000000
 -0.166667  0.250000  0.083333      4.000000
 -0.083333  0.250000  0.083333      4.000000
  0.000000  0.333333  0.083333      4.000000
  0.083333  0.333333  0.083333      4.000000
  0.166667  0.333333  0.083333      4.000000
  0.250000  0.333333  0.083333      4.000000
  0.333333  0.333333  0.083333      4.000000
  0.416667  0.333333  0.083333      4.000000
  0.500000  0.333333  0.083333      4.000000
 -0.416667  0.333333  0.083333      4.000000
 -0.333333  0.333333  0.083333      4.000000
 -0.250000  0.333333  0.083333      4.000000
 -0.166667  0.333333  0.083333      4.000000
 -0.083333  0.333333  0.083333      4.000000
  0.000000  0.416667  0.083333      4.000000
  0.083333  0.416667  0.083333      4.000000
  0.166667  0.416667  0.083333      4.000000
  0.250000  0.416667  0.083333      4.000000
  0.333333  0.416667  0.083333      4.000000
  0.416667  0.416667  0.083333      4.000000
  0.500000  0.416667  0.083333      4.000000
 -0.416667  0.416667  0.083333      4.000000
 -0.333333  0.416667  0.083333      4.000000
 -0.250000  0.416667  0.083333      4.000000
 -0.166667  0.416667  0.083333      4.000000
 -0.083333  0.416667  0.083333      4.000000
  0.000000  0.500000  0.083333      2.000000
  0.083333  0.500000  0.083333      4.000000
  0.166667  0.500000  0.083333      4.000000
  0.250000  0.500000  0.083333      4.000000
  0.333333  0.500000  0.083333      4.000000
  0.416667  0.500000  0.083333      4.000000
  0.500000  0.500000  0.083333      2.000000
  0.000000  0.000000  0.166667      2.000000
  0.083333  0.000000  0.166667      4.000000
  0.166667  0.000000  0.166667      4.000000
  0.250000  0.000000  0.166667      4.000000
  0.333333  0.000000  0.166667      4.000000
  0.416667  0.000000  0.166667      4.000000
  0.500000  0.000000  0.166667      2.000000
  0.000000  0.083333  0.166667      4.000000
  0.083333  0.083333  0.166667      4.000000
  0.166667  0.083333  0.166667      4.000000
  0.250000  0.083333  0.166667      4.000000
  0.333333  0.083333  0.166667      4.000000
  0.416667  0.083333  0.166667      4.000000
  0.500000  0.083333  0.166667      4.000000
 -0.416667  0.083333  0.166667      4.000000
 -0.333333  0.083333  0.166667      4.000000
 -0.250000  0.083333  0.166667      4.000000
 -0.166667  0.083333  0.166667      4.000000
 -0.083333  0.083333  0.166667      4.000000
  0.000000  0.166667  0.166667      4.000000
  0.083333  0.166667  0.166667      4.000000
  0.166667  0.166667  0.166667      4.000000
  0.250000  0.166667  0.166667      4.000000
  0.333333  0.166667  0.166667      4.000000
  0.416667  0.166667  0.166667      4.000000
  0.500000  0.166667  0.166667      4.000000
 -0.416667  0.166667  0.166667      4.000000
 -0.333333  0.166667  0.166667      4.000000
 -0.250000  0.166667  0.166667      4.000000
 -0.166667  0.166667  0.166667      4.000000
 -0.083333  0.166667  0.166667      4.000000
  0.000000  0.250000  0.166667      4.000000
  0.083333  0.250000  0.166667      4.000000
  0.166667  0.250000  0.166667      4.000000
  0.250000  0.250000  0.166667      4.000000
  0.333333  0.250000  0.166667      4.000000
  0.416667  0.250000  0.166667      4.000000
  0.500000  0.250000  0.166667      4.000000
 -0.416667  0.250000  0.166667      4.000000
 -0.333333  0.250000  0.166667      4.000000
 -0.250000  0.250000  0.166667      4.000000
 -0.166667  0.250000  0.166667      4.000000
 -0.083333  0.250000  0.166667      4.000000
  0.000000  0.333333  0.166667      4.000000
  0.083333  0.333333  0.166667      4.000000
  0.166667  0.333333  0.166667      4.000000
  0.250000  0.333333  0.166667      4.000000
  0.333333  0.333333  0.166667      4.000000
  0.416667  0.333333  0.166667      4.000000
  0.500000  0.333333  0.166667      4.000000
 -0.416667  0.333333  0.166667      4.000000
 -0.333333  0.333333  0.166667      4.000000
 -0.250000  0.333333  0.166667      4.000000
 -0.166667  0.333333  0.166667      4.000000
 -0.083333  0.333333  0.166667      4.000000
  0.000000  0.416667  0.166667      4.000000
  0.083333  0.416667  0.166667      4.000000
  0.166667  0.416667  0.166667      4.000000
  0.250000  0.416667  0.166667      4.000000
  0.333333  0.416667  0.166667      4.000000
  0.416667  0.416667  0.166667      4.000000
  0.500000  0.416667  0.166667      4.000000
 -0.416667  0.416667  0.166667      4.000000
 -0.333333  0.416667  0.166667      4.000000
 -0.250000  0.416667  0.166667      4.000000
 -0.166667  0.416667  0.166667      4.000000
 -0.083333  0.416667  0.166667      4.000000
  0.000000  0.500000  0.166667      2.000000
  0.083333  0.500000  0.166667      4.000000
  0.166667  0.500000  0.166667      4.000000
  0.250000  0.500000  0.166667      4.000000
  0.333333  0.500000  0.166667      4.000000
  0.416667  0.500000  0.166667      4.000000
  0.500000  0.500000  0.166667      2.000000
  0.000000  0.000000  0.250000      2.000000
  0.083333  0.000000  0.250000      4.000000
  0.166667  0.000000  0.250000      4.000000
  0.250000  0.000000  0.250000      4.000000
  0.333333  0.000000  0.250000      4.000000
  0.416667  0.000000  0.250000      4.000000
  0.500000  0.000000  0.250000      2.000000
  0.000000  0.083333  0.250000      4.000000
  0.083333  0.083333  0.250000      4.000000
  0.166667  0.083333  0.250000      4.000000
  0.250000  0.083333  0.250000      4.000000
  0.333333  0.083333  0.250000      4.000000
  0.416667  0.083333  0.250000      4.000000
  0.500000  0.083333  0.250000      4.000000
 -0.416667  0.083333  0.250000      4.000000
 -0.333333  0.083333  0.250000      4.000000
 -0.250000  0.083333  0.250000      4.000000
 -0.166667  0.083333  0.250000      4.000000
 -0.083333  0.083333  0.250000      4.000000
  0.000000  0.166667  0.250000      4.000000
  0.083333  0.166667  0.250000      4.000000
  0.166667  0.166667  0.250000      4.000000
  0.250000  0.166667  0.250000      4.000000
  0.333333  0.166667  0.250000      4.000000
  0.416667  0.166667  0.250000      4.000000
  0.500000  0.166667  0.250000      4.000000
 -0.416667  0.166667  0.250000      4.000000
 -0.333333  0.166667  0.250000      4.000000
 -0.250000  0.166667  0.250000      4.000000
 -0.166667  0.166667  0.250000      4.000000
 -0.083333  0.166667  0.250000      4.000000
  0.000000  0.250000  0.250000      4.000000
  0.083333  0.250000  0.250000      4.000000
  0.166667  0.250000  0.250000      4.000000
  0.250000  0.250000  0.250000      4.000000
  0.333333  0.250000  0.250000      4.000000
  0.416667  0.250000  0.250000      4.000000
  0.500000  0.250000  0.250000      4.000000
 -0.416667  0.250000  0.250000      4.000000
 -0.333333  0.250000  0.250000      4.000000
 -0.250000  0.250000  0.250000      4.000000
 -0.166667  0.250000  0.250000      4.000000
 -0.083333  0.250000  0.250000      4.000000
  0.000000  0.333333  0.250000      4.000000
  0.083333  0.333333  0.250000      4.000000
  0.166667  0.333333  0.250000      4.000000
  0.250000  0.333333  0.250000      4.000000
  0.333333  0.333333  0.250000      4.000000
  0.416667  0.333333  0.250000      4.000000
  0.500000  0.333333  0.250000      4.000000
 -0.416667  0.333333  0.250000      4.000000
 -0.333333  0.333333  0.250000      4.000000
 -0.250000  0.333333  0.250000      4.000000
 -0.166667  0.333333  0.250000      4.000000
 -0.083333  0.333333  0.250000      4.000000
  0.000000  0.416667  0.250000      4.000000
  0.083333  0.416667  0.250000      4.000000
  0.166667  0.416667  0.250000      4.000000
  0.250000  0.416667  0.250000      4.000000
  0.333333  0.416667  0.250000      4.000000
  0.416667  0.416667  0.250000      4.000000
  0.500000  0.416667  0.250000      4.000000
 -0.416667  0.416667  0.250000      4.000000
 -0.333333  0.416667  0.250000      4.000000
 -0.250000  0.416667  0.250000      4.000000
 -0.166667  0.416667  0.250000      4.000000
 -0.083333  0.416667  0.250000      4.000000
  0.000000  0.500000  0.250000      2.000000
  0.083333  0.500000  0.250000      4.000000
  0.166667  0.500000  0.250000      4.000000
  0.250000  0.500000  0.250000      4.000000
  0.333333  0.500000  0.250000      4.000000
  0.416667  0.500000  0.250000      4.000000
  0.500000  0.500000  0.250000      2.000000
  0.000000  0.000000  0.333333      2.000000
  0.083333  0.000000  0.333333      4.000000
  0.166667  0.000000  0.333333      4.000000
  0.250000  0.000000  0.333333      4.000000
  0.333333  0.000000  0.333333      4.000000
  0.416667  0.000000  0.333333      4.000000
  0.500000  0.000000  0.333333      2.000000
  0.000000  0.083333  0.333333      4.000000
  0.083333  0.083333  0.333333      4.000000
  0.166667  0.083333  0.333333      4.000000
  0.250000  0.083333  0.333333      4.000000
  0.333333  0.083333  0.333333      4.000000
  0.416667  0.083333  0.333333      4.000000
  0.500000  0.083333  0.333333      4.000000
 -0.416667  0.083333  0.333333      4.000000
 -0.333333  0.083333  0.333333      4.000000
 -0.250000  0.083333  0.333333      4.000000
 -0.166667  0.083333  0.333333      4.000000
 -0.083333  0.083333  0.333333      4.000000
  0.000000  0.166667  0.333333      4.000000
  0.083333  0.166667  0.333333      4.000000
  0.166667  0.166667  0.333333      4.000000
  0.250000  0.166667  0.333333      4.000000
  0.333333  0.166667  0.333333      4.000000
  0.416667  0.166667  0.333333      4.000000
  0.500000  0.166667  0.333333      4.000000
 -0.416667  0.166667  0.333333      4.000000
 -0.333333  0.166667  0.333333      4.000000
 -0.250000  0.166667  0.333333      4.000000
 -0.166667  0.166667  0.333333      4.000000
 -0.083333  0.166667  0.333333      4.000000
  0.000000  0.250000  0.333333      4.000000
  0.083333  0.250000  0.333333      4.000000
  0.166667  0.250000  0.333333      4.000000
  0.250000  0.250000  0.333333      4.000000
  0.333333  0.250000  0.333333      4.000000
  0.416667  0.250000  0.333333      4.000000
  0.500000  0.250000  0.333333      4.000000
 -0.416667  0.250000  0.333333      4.000000
 -0.333333  0.250000  0.333333      4.000000
 -0.250000  0.250000  0.333333      4.000000
 -0.166667  0.250000  0.333333      4.000000
 -0.083333  0.250000  0.333333      4.000000
  0.000000  0.333333  0.333333      4.000000
  0.083333  0.333333  0.333333      4.000000
  0.166667  0.333333  0.333333      4.000000
  0.250000  0.333333  0.333333      4.000000
  0.333333  0.333333  0.333333      4.000000
  0.416667  0.333333  0.333333      4.000000
  0.500000  0.333333  0.333333      4.000000
 -0.416667  0.333333  0.333333      4.000000
 -0.333333  0.333333  0.333333      4.000000
 -0.250000  0.333333  0.333333      4.000000
 -0.166667  0.333333  0.333333      4.000000
 -0.083333  0.333333  0.333333      4.000000
  0.000000  0.416667  0.333333      4.000000
  0.083333  0.416667  0.333333      4.000000
  0.166667  0.416667  0.333333      4.000000
  0.250000  0.416667  0.333333      4.000000
  0.333333  0.416667  0.333333      4.000000
  0.416667  0.416667  0.333333      4.000000
  0.500000  0.416667  0.333333      4.000000
 -0.416667  0.416667  0.333333      4.000000
 -0.333333  0.416667  0.333333      4.000000
 -0.250000  0.416667  0.333333      4.000000
 -0.166667  0.416667  0.333333      4.000000
 -0.083333  0.416667  0.333333      4.000000
  0.000000  0.500000  0.333333      2.000000
  0.083333  0.500000  0.333333      4.000000
  0.166667  0.500000  0.333333      4.000000
  0.250000  0.500000  0.333333      4.000000
  0.333333  0.500000  0.333333      4.000000
  0.416667  0.500000  0.333333      4.000000
  0.500000  0.500000  0.333333      2.000000
  0.000000  0.000000  0.416667      2.000000
  0.083333  0.000000  0.416667      4.000000
  0.166667  0.000000  0.416667      4.000000
  0.250000  0.000000  0.416667      4.000000
  0.333333  0.000000  0.416667      4.000000
  0.416667  0.000000  0.416667      4.000000
  0.500000  0.000000  0.416667      2.000000
  0.000000  0.083333  0.416667      4.000000
  0.083333  0.083333  0.416667      4.000000
  0.166667  0.083333  0.416667      4.000000
  0.250000  0.083333  0.416667      4.000000
  0.333333  0.083333  0.416667      4.000000
  0.416667  0.083333  0.416667      4.000000
  0.500000  0.083333  0.416667      4.000000
 -0.416667  0.083333  0.416667      4.000000
 -0.333333  0.083333  0.416667      4.000000
 -0.250000  0.083333  0.416667      4.000000
 -0.166667  0.083333  0.416667      4.000000
 -0.083333  0.083333  0.416667      4.000000
  0.000000  0.166667  0.416667      4.000000
  0.083333  0.166667  0.416667      4.000000
  0.166667  0.166667  0.416667      4.000000
  0.250000  0.166667  0.416667      4.000000
  0.333333  0.166667  0.416667      4.000000
  0.416667  0.166667  0.416667      4.000000
  0.500000  0.166667  0.416667      4.000000
 -0.416667  0.166667  0.416667      4.000000
 -0.333333  0.166667  0.416667      4.000000
 -0.250000  0.166667  0.416667      4.000000
 -0.166667  0.166667  0.416667      4.000000
 -0.083333  0.166667  0.416667      4.000000
  0.000000  0.250000  0.416667      4.000000
  0.083333  0.250000  0.416667      4.000000
  0.166667  0.250000  0.416667      4.000000
  0.250000  0.250000  0.416667      4.000000
  0.333333  0.250000  0.416667      4.000000
  0.416667  0.250000  0.416667      4.000000
  0.500000  0.250000  0.416667      4.000000
 -0.416667  0.250000  0.416667      4.000000
 -0.333333  0.250000  0.416667      4.000000
 -0.250000  0.250000  0.416667      4.000000
 -0.166667  0.250000  0.416667      4.000000
 -0.083333  0.250000  0.416667      4.000000
  0.000000  0.333333  0.416667      4.000000
  0.083333  0.333333  0.416667      4.000000
  0.166667  0.333333  0.416667      4.000000
  0.250000  0.333333  0.416667      4.000000
  0.333333  0.333333  0.416667      4.000000
  0.416667  0.333333  0.416667      4.000000
  0.500000  0.333333  0.416667      4.000000
 -0.416667  0.333333  0.416667      4.000000
 -0.333333  0.333333  0.416667      4.000000
 -0.250000  0.333333  0.416667      4.000000
 -0.166667  0.333333  0.416667      4.000000
 -0.083333  0.333333  0.416667      4.000000
  0.000000  0.416667  0.416667      4.000000
  0.083333  0.416667  0.416667      4.000000
  0.166667  0.416667  0.416667      4.000000
  0.250000  0.416667  0.416667      4.000000
  0.333333  0.416667  0.416667      4.000000
  0.416667  0.416667  0.416667      4.000000
  0.500000  0.416667  0.416667      4.000000
 -0.416667  0.416667  0.416667      4.000000
 -0.333333  0.416667  0.416667      4.000000
 -0.250000  0.416667  0.416667      4.000000
 -0.166667  0.416667  0.416667      4.000000
 -0.083333  0.416667  0.416667      4.000000
  0.000000  0.500000  0.416667      2.000000
  0.083333  0.500000  0.416667      4.000000
  0.166667  0.500000  0.416667      4.000000
  0.250000  0.500000  0.416667      4.000000
  0.333333  0.500000  0.416667      4.000000
  0.416667  0.500000  0.416667      4.000000
  0.500000  0.500000  0.416667      2.000000
  0.000000  0.000000  0.500000      1.000000
  0.083333  0.000000  0.500000      2.000000
  0.166667  0.000000  0.500000      2.000000
  0.250000  0.000000  0.500000      2.000000
  0.333333  0.000000  0.500000      2.000000
  0.416667  0.000000  0.500000      2.000000
  0.500000  0.000000  0.500000      1.000000
  0.000000  0.083333  0.500000      2.000000
  0.083333  0.083333  0.500000      2.000000
  0.166667  0.083333  0.500000      2.000000
  0.250000  0.083333  0.500000      2.000000
  0.333333  0.083333  0.500000      2.000000
  0.416667  0.083333  0.500000      2.000000
  0.500000  0.083333  0.500000      2.000000
 -0.416667  0.083333  0.500000      2.000000
 -0.333333  0.083333  0.500000      2.000000
 -0.250000  0.083333  0.500000      2.000000
 -0.166667  0.083333  0.500000      2.000000
 -0.083333  0.083333  0.500000      2.000000
  0.000000  0.166667  0.500000      2.000000
  0.083333  0.166667  0.500000      2.000000
  0.166667  0.166667  0.500000      2.000000
  0.250000  0.166667  0.500000      2.000000
  0.333333  0.166667  0.500000      2.000000
  0.416667  0.166667  0.500000      2.000000
  0.500000  0.166667  0.500000      2.000000
 -0.416667  0.166667  0.500000      2.000000
 -0.333333  0.166667  0.500000      2.000000
 -0.250000  0.166667  0.500000      2.000000
 -0.166667  0.166667  0.500000      2.000000
 -0.083333  0.166667  0.500000      2.000000
  0.000000  0.250000  0.500000      2.000000
  0.083333  0.250000  0.500000      2.000000
  0.166667  0.250000  0.500000      2.000000
  0.250000  0.250000  0.500000      2.000000
  0.333333  0.250000  0.500000      2.000000
  0.416667  0.250000  0.500000      2.000000
  0.500000  0.250000  0.500000      2.000000
 -0.416667  0.250000  0.500000      2.000000
 -0.333333  0.250000  0.500000      2.000000
 -0.250000  0.250000  0.500000      2.000000
 -0.166667  0.250000  0.500000      2.000000
 -0.083333  0.250000  0.500000      2.000000
  0.000000  0.333333  0.500000      2.000000
  0.083333  0.333333  0.500000      2.000000
  0.166667  0.333333  0.500000      2.000000
  0.250000  0.333333  0.500000      2.000000
  0.333333  0.333333  0.500000      2.000000
  0.416667  0.333333  0.500000      2.000000
  0.500000  0.333333  0.500000      2.000000
 -0.416667  0.333333  0.500000      2.000000
 -0.333333  0.333333  0.500000      2.000000
 -0.250000  0.333333  0.500000      2.000000
 -0.166667  0.333333  0.500000      2.000000
 -0.083333  0.333333  0.500000      2.000000
  0.000000  0.416667  0.500000      2.000000
  0.083333  0.416667  0.500000      2.000000
  0.166667  0.416667  0.500000      2.000000
  0.250000  0.416667  0.500000      2.000000
  0.333333  0.416667  0.500000      2.000000
  0.416667  0.416667  0.500000      2.000000
  0.500000  0.416667  0.500000      2.000000
 -0.416667  0.416667  0.500000      2.000000
 -0.333333  0.416667  0.500000      2.000000
 -0.250000  0.416667  0.500000      2.000000
 -0.166667  0.416667  0.500000      2.000000
 -0.083333  0.416667  0.500000      2.000000
  0.000000  0.500000  0.500000      1.000000
  0.083333  0.500000  0.500000      2.000000
  0.166667  0.500000  0.500000      2.000000
  0.250000  0.500000  0.500000      2.000000
  0.333333  0.500000  0.500000      2.000000
  0.416667  0.500000  0.500000      2.000000
  0.500000  0.500000  0.500000      1.000000
 
 Following cartesian coordinates:
            Coordinates               Weight
  0.000000  0.000000  0.000000      1.000000
  0.015490  0.000077  0.000000      2.000000
  0.030979  0.000155  0.000000      2.000000
  0.046469  0.000232  0.000000      2.000000
  0.061958  0.000310  0.000000      2.000000
  0.077448  0.000387  0.000000      2.000000
  0.092937  0.000465  0.000000      1.000000
  0.000077  0.015335  0.000000      2.000000
  0.015567  0.015412  0.000000      2.000000
  0.031057  0.015490  0.000000      2.000000
  0.046546  0.015567  0.000000      2.000000
  0.062036  0.015644  0.000000      2.000000
  0.077525  0.015722  0.000000      2.000000
  0.093015  0.015799  0.000000      2.000000
 -0.077370  0.014947  0.000000      2.000000
 -0.061881  0.015025  0.000000      2.000000
 -0.046391  0.015102  0.000000      2.000000
 -0.030902  0.015180  0.000000      2.000000
 -0.015412  0.015257  0.000000      2.000000
  0.000155  0.030669  0.000000      2.000000
  0.015644  0.030747  0.000000      2.000000
  0.031134  0.030824  0.000000      2.000000
  0.046624  0.030902  0.000000      2.000000
  0.062113  0.030979  0.000000      2.000000
  0.077603  0.031057  0.000000      2.000000
  0.093092  0.031134  0.000000      2.000000
 -0.077293  0.030282  0.000000      2.000000
 -0.061803  0.030360  0.000000      2.000000
 -0.046314  0.030437  0.000000      2.000000
 -0.030824  0.030514  0.000000      2.000000
 -0.015335  0.030592  0.000000      2.000000
  0.000232  0.046004  0.000000      2.000000
  0.015722  0.046081  0.000000      2.000000
  0.031211  0.046159  0.000000      2.000000
  0.046701  0.046236  0.000000      2.000000
  0.062191  0.046314  0.000000      2.000000
  0.077680  0.046391  0.000000      2.000000
  0.093170  0.046469  0.000000      2.000000
 -0.077215  0.045617  0.000000      2.000000
 -0.061726  0.045694  0.000000      2.000000
 -0.046236  0.045772  0.000000      2.000000
 -0.030747  0.045849  0.000000      2.000000
 -0.015257  0.045926  0.000000      2.000000
  0.000310  0.061339  0.000000      2.000000
  0.015799  0.061416  0.000000      2.000000
  0.031289  0.061493  0.000000      2.000000
  0.046778  0.061571  0.000000      2.000000
  0.062268  0.061648  0.000000      2.000000
  0.077758  0.061726  0.000000      2.000000
  0.093247  0.061803  0.000000      2.000000
 -0.077138  0.060951  0.000000      2.000000
 -0.061648  0.061029  0.000000      2.000000
 -0.046159  0.061106  0.000000      2.000000
 -0.030669  0.061184  0.000000      2.000000
 -0.015180  0.061261  0.000000      2.000000
  0.000387  0.076673  0.000000      2.000000
  0.015877  0.076751  0.000000      2.000000
  0.031366  0.076828  0.000000      2.000000
  0.046856  0.076906  0.000000      2.000000
  0.062345  0.076983  0.000000      2.000000
  0.077835  0.077060  0.000000      2.000000
  0.093325  0.077138  0.000000      2.000000
 -0.077060  0.076286  0.000000      2.000000
 -0.061571  0.076363  0.000000      2.000000
 -0.046081  0.076441  0.000000      2.000000
 -0.030592  0.076518  0.000000      2.000000
 -0.015102  0.076596  0.000000      2.000000
  0.000465  0.092008  0.000000      1.000000
  0.015954  0.092085  0.000000      2.000000
  0.031444  0.092163  0.000000      2.000000
  0.046933  0.092240  0.000000      2.000000
  0.062423  0.092318  0.000000      2.000000
  0.077912  0.092395  0.000000      2.000000
  0.093402  0.092473  0.000000      1.000000
  0.000000  0.000000  0.015334      2.000000
  0.015490  0.000077  0.015334      4.000000
  0.030979  0.000155  0.015334      4.000000
  0.046469  0.000232  0.015334      4.000000
  0.061958  0.000310  0.015334      4.000000
  0.077448  0.000387  0.015334      4.000000
  0.092937  0.000465  0.015334      2.000000
  0.000077  0.015335  0.015334      4.000000
  0.015567  0.015412  0.015334      4.000000
  0.031057  0.015490  0.015334      4.000000
  0.046546  0.015567  0.015334      4.000000
  0.062036  0.015644  0.015334      4.000000
  0.077525  0.015722  0.015334      4.000000
  0.093015  0.015799  0.015334      4.000000
 -0.077370  0.014947  0.015334      4.000000
 -0.061881  0.015025  0.015334      4.000000
 -0.046391  0.015102  0.015334      4.000000
 -0.030902  0.015180  0.015334      4.000000
 -0.015412  0.015257  0.015334      4.000000
  0.000155  0.030669  0.015334      4.000000
  0.015644  0.030747  0.015334      4.000000
  0.031134  0.030824  0.015334      4.000000
  0.046624  0.030902  0.015334      4.000000
  0.062113  0.030979  0.015334      4.000000
  0.077603  0.031057  0.015334      4.000000
  0.093092  0.031134  0.015334      4.000000
 -0.077293  0.030282  0.015334      4.000000
 -0.061803  0.030360  0.015334      4.000000
 -0.046314  0.030437  0.015334      4.000000
 -0.030824  0.030514  0.015334      4.000000
 -0.015335  0.030592  0.015334      4.000000
  0.000232  0.046004  0.015334      4.000000
  0.015722  0.046081  0.015334      4.000000
  0.031211  0.046159  0.015334      4.000000
  0.046701  0.046236  0.015334      4.000000
  0.062191  0.046314  0.015334      4.000000
  0.077680  0.046391  0.015334      4.000000
  0.093170  0.046469  0.015334      4.000000
 -0.077215  0.045617  0.015334      4.000000
 -0.061726  0.045694  0.015334      4.000000
 -0.046236  0.045772  0.015334      4.000000
 -0.030747  0.045849  0.015334      4.000000
 -0.015257  0.045926  0.015334      4.000000
  0.000310  0.061339  0.015334      4.000000
  0.015799  0.061416  0.015334      4.000000
  0.031289  0.061493  0.015334      4.000000
  0.046778  0.061571  0.015334      4.000000
  0.062268  0.061648  0.015334      4.000000
  0.077758  0.061726  0.015334      4.000000
  0.093247  0.061803  0.015334      4.000000
 -0.077138  0.060951  0.015334      4.000000
 -0.061648  0.061029  0.015334      4.000000
 -0.046159  0.061106  0.015334      4.000000
 -0.030669  0.061184  0.015334      4.000000
 -0.015180  0.061261  0.015334      4.000000
  0.000387  0.076673  0.015334      4.000000
  0.015877  0.076751  0.015334      4.000000
  0.031366  0.076828  0.015334      4.000000
  0.046856  0.076906  0.015334      4.000000
  0.062345  0.076983  0.015334      4.000000
  0.077835  0.077060  0.015334      4.000000
  0.093325  0.077138  0.015334      4.000000
 -0.077060  0.076286  0.015334      4.000000
 -0.061571  0.076363  0.015334      4.000000
 -0.046081  0.076441  0.015334      4.000000
 -0.030592  0.076518  0.015334      4.000000
 -0.015102  0.076596  0.015334      4.000000
  0.000465  0.092008  0.015334      2.000000
  0.015954  0.092085  0.015334      4.000000
  0.031444  0.092163  0.015334      4.000000
  0.046933  0.092240  0.015334      4.000000
  0.062423  0.092318  0.015334      4.000000
  0.077912  0.092395  0.015334      4.000000
  0.093402  0.092473  0.015334      2.000000
  0.000000  0.000000  0.030669      2.000000
  0.015490  0.000077  0.030669      4.000000
  0.030979  0.000155  0.030669      4.000000
  0.046469  0.000232  0.030669      4.000000
  0.061958  0.000310  0.030669      4.000000
  0.077448  0.000387  0.030669      4.000000
  0.092937  0.000465  0.030669      2.000000
  0.000077  0.015335  0.030669      4.000000
  0.015567  0.015412  0.030669      4.000000
  0.031057  0.015490  0.030669      4.000000
  0.046546  0.015567  0.030669      4.000000
  0.062036  0.015644  0.030669      4.000000
  0.077525  0.015722  0.030669      4.000000
  0.093015  0.015799  0.030669      4.000000
 -0.077370  0.014947  0.030669      4.000000
 -0.061881  0.015025  0.030669      4.000000
 -0.046391  0.015102  0.030669      4.000000
 -0.030902  0.015180  0.030669      4.000000
 -0.015412  0.015257  0.030669      4.000000
  0.000155  0.030669  0.030669      4.000000
  0.015644  0.030747  0.030669      4.000000
  0.031134  0.030824  0.030669      4.000000
  0.046624  0.030902  0.030669      4.000000
  0.062113  0.030979  0.030669      4.000000
  0.077603  0.031057  0.030669      4.000000
  0.093092  0.031134  0.030669      4.000000
 -0.077293  0.030282  0.030669      4.000000
 -0.061803  0.030360  0.030669      4.000000
 -0.046314  0.030437  0.030669      4.000000
 -0.030824  0.030514  0.030669      4.000000
 -0.015335  0.030592  0.030669      4.000000
  0.000232  0.046004  0.030669      4.000000
  0.015722  0.046081  0.030669      4.000000
  0.031211  0.046159  0.030669      4.000000
  0.046701  0.046236  0.030669      4.000000
  0.062191  0.046314  0.030669      4.000000
  0.077680  0.046391  0.030669      4.000000
  0.093170  0.046469  0.030669      4.000000
 -0.077215  0.045617  0.030669      4.000000
 -0.061726  0.045694  0.030669      4.000000
 -0.046236  0.045772  0.030669      4.000000
 -0.030747  0.045849  0.030669      4.000000
 -0.015257  0.045926  0.030669      4.000000
  0.000310  0.061339  0.030669      4.000000
  0.015799  0.061416  0.030669      4.000000
  0.031289  0.061493  0.030669      4.000000
  0.046778  0.061571  0.030669      4.000000
  0.062268  0.061648  0.030669      4.000000
  0.077758  0.061726  0.030669      4.000000
  0.093247  0.061803  0.030669      4.000000
 -0.077138  0.060951  0.030669      4.000000
 -0.061648  0.061029  0.030669      4.000000
 -0.046159  0.061106  0.030669      4.000000
 -0.030669  0.061184  0.030669      4.000000
 -0.015180  0.061261  0.030669      4.000000
  0.000387  0.076673  0.030669      4.000000
  0.015877  0.076751  0.030669      4.000000
  0.031366  0.076828  0.030669      4.000000
  0.046856  0.076906  0.030669      4.000000
  0.062345  0.076983  0.030669      4.000000
  0.077835  0.077060  0.030669      4.000000
  0.093325  0.077138  0.030669      4.000000
 -0.077060  0.076286  0.030669      4.000000
 -0.061571  0.076363  0.030669      4.000000
 -0.046081  0.076441  0.030669      4.000000
 -0.030592  0.076518  0.030669      4.000000
 -0.015102  0.076596  0.030669      4.000000
  0.000465  0.092008  0.030669      2.000000
  0.015954  0.092085  0.030669      4.000000
  0.031444  0.092163  0.030669      4.000000
  0.046933  0.092240  0.030669      4.000000
  0.062423  0.092318  0.030669      4.000000
  0.077912  0.092395  0.030669      4.000000
  0.093402  0.092473  0.030669      2.000000
  0.000000  0.000000  0.046003      2.000000
  0.015490  0.000077  0.046003      4.000000
  0.030979  0.000155  0.046003      4.000000
  0.046469  0.000232  0.046003      4.000000
  0.061958  0.000310  0.046003      4.000000
  0.077448  0.000387  0.046003      4.000000
  0.092937  0.000465  0.046003      2.000000
  0.000077  0.015335  0.046003      4.000000
  0.015567  0.015412  0.046003      4.000000
  0.031057  0.015490  0.046003      4.000000
  0.046546  0.015567  0.046003      4.000000
  0.062036  0.015644  0.046003      4.000000
  0.077525  0.015722  0.046003      4.000000
  0.093015  0.015799  0.046003      4.000000
 -0.077370  0.014947  0.046003      4.000000
 -0.061881  0.015025  0.046003      4.000000
 -0.046391  0.015102  0.046003      4.000000
 -0.030902  0.015180  0.046003      4.000000
 -0.015412  0.015257  0.046003      4.000000
  0.000155  0.030669  0.046003      4.000000
  0.015644  0.030747  0.046003      4.000000
  0.031134  0.030824  0.046003      4.000000
  0.046624  0.030902  0.046003      4.000000
  0.062113  0.030979  0.046003      4.000000
  0.077603  0.031057  0.046003      4.000000
  0.093092  0.031134  0.046003      4.000000
 -0.077293  0.030282  0.046003      4.000000
 -0.061803  0.030360  0.046003      4.000000
 -0.046314  0.030437  0.046003      4.000000
 -0.030824  0.030514  0.046003      4.000000
 -0.015335  0.030592  0.046003      4.000000
  0.000232  0.046004  0.046003      4.000000
  0.015722  0.046081  0.046003      4.000000
  0.031211  0.046159  0.046003      4.000000
  0.046701  0.046236  0.046003      4.000000
  0.062191  0.046314  0.046003      4.000000
  0.077680  0.046391  0.046003      4.000000
  0.093170  0.046469  0.046003      4.000000
 -0.077215  0.045617  0.046003      4.000000
 -0.061726  0.045694  0.046003      4.000000
 -0.046236  0.045772  0.046003      4.000000
 -0.030747  0.045849  0.046003      4.000000
 -0.015257  0.045926  0.046003      4.000000
  0.000310  0.061339  0.046003      4.000000
  0.015799  0.061416  0.046003      4.000000
  0.031289  0.061493  0.046003      4.000000
  0.046778  0.061571  0.046003      4.000000
  0.062268  0.061648  0.046003      4.000000
  0.077758  0.061726  0.046003      4.000000
  0.093247  0.061803  0.046003      4.000000
 -0.077138  0.060951  0.046003      4.000000
 -0.061648  0.061029  0.046003      4.000000
 -0.046159  0.061106  0.046003      4.000000
 -0.030669  0.061184  0.046003      4.000000
 -0.015180  0.061261  0.046003      4.000000
  0.000387  0.076673  0.046003      4.000000
  0.015877  0.076751  0.046003      4.000000
  0.031366  0.076828  0.046003      4.000000
  0.046856  0.076906  0.046003      4.000000
  0.062345  0.076983  0.046003      4.000000
  0.077835  0.077060  0.046003      4.000000
  0.093325  0.077138  0.046003      4.000000
 -0.077060  0.076286  0.046003      4.000000
 -0.061571  0.076363  0.046003      4.000000
 -0.046081  0.076441  0.046003      4.000000
 -0.030592  0.076518  0.046003      4.000000
 -0.015102  0.076596  0.046003      4.000000
  0.000465  0.092008  0.046003      2.000000
  0.015954  0.092085  0.046003      4.000000
  0.031444  0.092163  0.046003      4.000000
  0.046933  0.092240  0.046003      4.000000
  0.062423  0.092318  0.046003      4.000000
  0.077912  0.092395  0.046003      4.000000
  0.093402  0.092473  0.046003      2.000000
  0.000000  0.000000  0.061337      2.000000
  0.015490  0.000077  0.061337      4.000000
  0.030979  0.000155  0.061337      4.000000
  0.046469  0.000232  0.061337      4.000000
  0.061958  0.000310  0.061337      4.000000
  0.077448  0.000387  0.061337      4.000000
  0.092937  0.000465  0.061337      2.000000
  0.000077  0.015335  0.061337      4.000000
  0.015567  0.015412  0.061337      4.000000
  0.031057  0.015490  0.061337      4.000000
  0.046546  0.015567  0.061337      4.000000
  0.062036  0.015644  0.061337      4.000000
  0.077525  0.015722  0.061337      4.000000
  0.093015  0.015799  0.061337      4.000000
 -0.077370  0.014947  0.061337      4.000000
 -0.061881  0.015025  0.061337      4.000000
 -0.046391  0.015102  0.061337      4.000000
 -0.030902  0.015180  0.061337      4.000000
 -0.015412  0.015257  0.061337      4.000000
  0.000155  0.030669  0.061337      4.000000
  0.015644  0.030747  0.061337      4.000000
  0.031134  0.030824  0.061337      4.000000
  0.046624  0.030902  0.061337      4.000000
  0.062113  0.030979  0.061337      4.000000
  0.077603  0.031057  0.061337      4.000000
  0.093092  0.031134  0.061337      4.000000
 -0.077293  0.030282  0.061337      4.000000
 -0.061803  0.030360  0.061337      4.000000
 -0.046314  0.030437  0.061337      4.000000
 -0.030824  0.030514  0.061337      4.000000
 -0.015335  0.030592  0.061337      4.000000
  0.000232  0.046004  0.061337      4.000000
  0.015722  0.046081  0.061337      4.000000
  0.031211  0.046159  0.061337      4.000000
  0.046701  0.046236  0.061337      4.000000
  0.062191  0.046314  0.061337      4.000000
  0.077680  0.046391  0.061337      4.000000
  0.093170  0.046469  0.061337      4.000000
 -0.077215  0.045617  0.061337      4.000000
 -0.061726  0.045694  0.061337      4.000000
 -0.046236  0.045772  0.061337      4.000000
 -0.030747  0.045849  0.061337      4.000000
 -0.015257  0.045926  0.061337      4.000000
  0.000310  0.061339  0.061337      4.000000
  0.015799  0.061416  0.061337      4.000000
  0.031289  0.061493  0.061337      4.000000
  0.046778  0.061571  0.061337      4.000000
  0.062268  0.061648  0.061337      4.000000
  0.077758  0.061726  0.061337      4.000000
  0.093247  0.061803  0.061337      4.000000
 -0.077138  0.060951  0.061337      4.000000
 -0.061648  0.061029  0.061337      4.000000
 -0.046159  0.061106  0.061337      4.000000
 -0.030669  0.061184  0.061337      4.000000
 -0.015180  0.061261  0.061337      4.000000
  0.000387  0.076673  0.061337      4.000000
  0.015877  0.076751  0.061337      4.000000
  0.031366  0.076828  0.061337      4.000000
  0.046856  0.076906  0.061337      4.000000
  0.062345  0.076983  0.061337      4.000000
  0.077835  0.077060  0.061337      4.000000
  0.093325  0.077138  0.061337      4.000000
 -0.077060  0.076286  0.061337      4.000000
 -0.061571  0.076363  0.061337      4.000000
 -0.046081  0.076441  0.061337      4.000000
 -0.030592  0.076518  0.061337      4.000000
 -0.015102  0.076596  0.061337      4.000000
  0.000465  0.092008  0.061337      2.000000
  0.015954  0.092085  0.061337      4.000000
  0.031444  0.092163  0.061337      4.000000
  0.046933  0.092240  0.061337      4.000000
  0.062423  0.092318  0.061337      4.000000
  0.077912  0.092395  0.061337      4.000000
  0.093402  0.092473  0.061337      2.000000
  0.000000  0.000000  0.076671      2.000000
  0.015490  0.000077  0.076671      4.000000
  0.030979  0.000155  0.076671      4.000000
  0.046469  0.000232  0.076671      4.000000
  0.061958  0.000310  0.076671      4.000000
  0.077448  0.000387  0.076671      4.000000
  0.092937  0.000465  0.076671      2.000000
  0.000077  0.015335  0.076671      4.000000
  0.015567  0.015412  0.076671      4.000000
  0.031057  0.015490  0.076671      4.000000
  0.046546  0.015567  0.076671      4.000000
  0.062036  0.015644  0.076671      4.000000
  0.077525  0.015722  0.076671      4.000000
  0.093015  0.015799  0.076671      4.000000
 -0.077370  0.014947  0.076671      4.000000
 -0.061881  0.015025  0.076671      4.000000
 -0.046391  0.015102  0.076671      4.000000
 -0.030902  0.015180  0.076671      4.000000
 -0.015412  0.015257  0.076671      4.000000
  0.000155  0.030669  0.076671      4.000000
  0.015644  0.030747  0.076671      4.000000
  0.031134  0.030824  0.076671      4.000000
  0.046624  0.030902  0.076671      4.000000
  0.062113  0.030979  0.076671      4.000000
  0.077603  0.031057  0.076671      4.000000
  0.093092  0.031134  0.076671      4.000000
 -0.077293  0.030282  0.076671      4.000000
 -0.061803  0.030360  0.076671      4.000000
 -0.046314  0.030437  0.076671      4.000000
 -0.030824  0.030514  0.076671      4.000000
 -0.015335  0.030592  0.076671      4.000000
  0.000232  0.046004  0.076671      4.000000
  0.015722  0.046081  0.076671      4.000000
  0.031211  0.046159  0.076671      4.000000
  0.046701  0.046236  0.076671      4.000000
  0.062191  0.046314  0.076671      4.000000
  0.077680  0.046391  0.076671      4.000000
  0.093170  0.046469  0.076671      4.000000
 -0.077215  0.045617  0.076671      4.000000
 -0.061726  0.045694  0.076671      4.000000
 -0.046236  0.045772  0.076671      4.000000
 -0.030747  0.045849  0.076671      4.000000
 -0.015257  0.045926  0.076671      4.000000
  0.000310  0.061339  0.076671      4.000000
  0.015799  0.061416  0.076671      4.000000
  0.031289  0.061493  0.076671      4.000000
  0.046778  0.061571  0.076671      4.000000
  0.062268  0.061648  0.076671      4.000000
  0.077758  0.061726  0.076671      4.000000
  0.093247  0.061803  0.076671      4.000000
 -0.077138  0.060951  0.076671      4.000000
 -0.061648  0.061029  0.076671      4.000000
 -0.046159  0.061106  0.076671      4.000000
 -0.030669  0.061184  0.076671      4.000000
 -0.015180  0.061261  0.076671      4.000000
  0.000387  0.076673  0.076671      4.000000
  0.015877  0.076751  0.076671      4.000000
  0.031366  0.076828  0.076671      4.000000
  0.046856  0.076906  0.076671      4.000000
  0.062345  0.076983  0.076671      4.000000
  0.077835  0.077060  0.076671      4.000000
  0.093325  0.077138  0.076671      4.000000
 -0.077060  0.076286  0.076671      4.000000
 -0.061571  0.076363  0.076671      4.000000
 -0.046081  0.076441  0.076671      4.000000
 -0.030592  0.076518  0.076671      4.000000
 -0.015102  0.076596  0.076671      4.000000
  0.000465  0.092008  0.076671      2.000000
  0.015954  0.092085  0.076671      4.000000
  0.031444  0.092163  0.076671      4.000000
  0.046933  0.092240  0.076671      4.000000
  0.062423  0.092318  0.076671      4.000000
  0.077912  0.092395  0.076671      4.000000
  0.093402  0.092473  0.076671      2.000000
  0.000000  0.000000  0.092006      1.000000
  0.015490  0.000077  0.092006      2.000000
  0.030979  0.000155  0.092006      2.000000
  0.046469  0.000232  0.092006      2.000000
  0.061958  0.000310  0.092006      2.000000
  0.077448  0.000387  0.092006      2.000000
  0.092937  0.000465  0.092006      1.000000
  0.000077  0.015335  0.092006      2.000000
  0.015567  0.015412  0.092006      2.000000
  0.031057  0.015490  0.092006      2.000000
  0.046546  0.015567  0.092006      2.000000
  0.062036  0.015644  0.092006      2.000000
  0.077525  0.015722  0.092006      2.000000
  0.093015  0.015799  0.092006      2.000000
 -0.077370  0.014947  0.092006      2.000000
 -0.061881  0.015025  0.092006      2.000000
 -0.046391  0.015102  0.092006      2.000000
 -0.030902  0.015180  0.092006      2.000000
 -0.015412  0.015257  0.092006      2.000000
  0.000155  0.030669  0.092006      2.000000
  0.015644  0.030747  0.092006      2.000000
  0.031134  0.030824  0.092006      2.000000
  0.046624  0.030902  0.092006      2.000000
  0.062113  0.030979  0.092006      2.000000
  0.077603  0.031057  0.092006      2.000000
  0.093092  0.031134  0.092006      2.000000
 -0.077293  0.030282  0.092006      2.000000
 -0.061803  0.030360  0.092006      2.000000
 -0.046314  0.030437  0.092006      2.000000
 -0.030824  0.030514  0.092006      2.000000
 -0.015335  0.030592  0.092006      2.000000
  0.000232  0.046004  0.092006      2.000000
  0.015722  0.046081  0.092006      2.000000
  0.031211  0.046159  0.092006      2.000000
  0.046701  0.046236  0.092006      2.000000
  0.062191  0.046314  0.092006      2.000000
  0.077680  0.046391  0.092006      2.000000
  0.093170  0.046469  0.092006      2.000000
 -0.077215  0.045617  0.092006      2.000000
 -0.061726  0.045694  0.092006      2.000000
 -0.046236  0.045772  0.092006      2.000000
 -0.030747  0.045849  0.092006      2.000000
 -0.015257  0.045926  0.092006      2.000000
  0.000310  0.061339  0.092006      2.000000
  0.015799  0.061416  0.092006      2.000000
  0.031289  0.061493  0.092006      2.000000
  0.046778  0.061571  0.092006      2.000000
  0.062268  0.061648  0.092006      2.000000
  0.077758  0.061726  0.092006      2.000000
  0.093247  0.061803  0.092006      2.000000
 -0.077138  0.060951  0.092006      2.000000
 -0.061648  0.061029  0.092006      2.000000
 -0.046159  0.061106  0.092006      2.000000
 -0.030669  0.061184  0.092006      2.000000
 -0.015180  0.061261  0.092006      2.000000
  0.000387  0.076673  0.092006      2.000000
  0.015877  0.076751  0.092006      2.000000
  0.031366  0.076828  0.092006      2.000000
  0.046856  0.076906  0.092006      2.000000
  0.062345  0.076983  0.092006      2.000000
  0.077835  0.077060  0.092006      2.000000
  0.093325  0.077138  0.092006      2.000000
 -0.077060  0.076286  0.092006      2.000000
 -0.061571  0.076363  0.092006      2.000000
 -0.046081  0.076441  0.092006      2.000000
 -0.030592  0.076518  0.092006      2.000000
 -0.015102  0.076596  0.092006      2.000000
  0.000465  0.092008  0.092006      1.000000
  0.015954  0.092085  0.092006      2.000000
  0.031444  0.092163  0.092006      2.000000
  0.046933  0.092240  0.092006      2.000000
  0.062423  0.092318  0.092006      2.000000
  0.077912  0.092395  0.092006      2.000000
  0.093402  0.092473  0.092006      1.000000
 
 TETIRR: Found   5184 inequivalent tetrahedra from    10368


--------------------------------------------------------------------------------------------------------




 Dimension of arrays:
   k-points           NKPTS =    518   k-points in BZ     NKDIM =    518   number of bands    NBANDS=     22
   number of dos      NEDOS =    301   number of ions     NIONS =      8
   non local maximal  LDIM  =      4   non local SUM 2l+1 LMDIM =      8
   total plane-waves  NPLWV =  46656
   max r-space proj   IRMAX =      1   max aug-charges    IRDMAX=  10016
   dimension x,y,z NGX =    36 NGY =   36 NGZ =   36
   dimension x,y,z NGXF=    72 NGYF=   72 NGZF=   72
   support grid    NGXF=    72 NGYF=   72 NGZF=   72
   ions per type =               8
 NGX,Y,Z   is equivalent  to a cutoff of  11.12, 11.01, 11.01 a.u.
 NGXF,Y,Z  is equivalent  to a cutoff of  22.25, 22.03, 22.03 a.u.


 I would recommend the setting:
   dimension x,y,z NGX =    35 NGY =   35 NGZ =   35
 SYSTEM =  Si                                      
 POSCAR =  Si8                                     

 Startparameter for this run:
   NWRITE =      2    write-flag & timer
   PREC   = accura    normal or accurate (medium, high low for compatibility)
   ISTART =      0    job   : 0-new  1-cont  2-samecut
   ICHARG =      2    charge: 1-file 2-atom 10-const
   ISPIN  =      1    spin polarized calculation?
   LNONCOLLINEAR =      F non collinear calculations
   LSORBIT =      F    spin-orbit coupling
   INIWAV =      1    electr: 0-lowe 1-rand  2-diag
   LASPH  =      F    aspherical Exc in radial PAW
   METAGGA=      F    non-selfconsistent MetaGGA calc.

 Electronic Relaxation 1
   ENCUT  =  400.0 eV  29.40 Ry    5.42 a.u.   8.77  8.86  8.86*2*pi/ulx,y,z
   ENINI  =  400.0     initial cutoff
   ENAUG  =  322.1 eV  augmentation charge cutoff
   NELM   =     40;   NELMIN=  4; NELMDL= -5     # of ELM steps 
   EDIFF  = 0.1E-05   stopping-criterion for ELM
   LREAL  =      F    real-space projection
   NLSPLINE    = F    spline interpolate recip. space projectors
   LCOMPAT=      F    compatible to vasp.4.4
   GGA_COMPAT  = T    GGA compatible to vasp.4.4-vasp.4.6
   LMAXPAW     = -100 max onsite density
   LMAXMIX     =    2 max onsite mixed and CHGCAR
   VOSKOWN=      0    Vosko Wilk Nusair interpolation
   ROPT   =    0.00000
 Ionic relaxation
   EDIFFG = -.1E-03   stopping-criterion for IOM
   NSW    =    200    number of steps for IOM
   NBLOCK =      1;   KBLOCK =    200    inner block; outer block 
   IBRION =      2    ionic relax: 0-MD 1-quasi-New 2-CG
   NFREE  =      1    steps in history (QN), initial steepest desc. (CG)
   ISIF   =      2    stress and relaxation
   IWAVPR =     11    prediction:  0-non 1-charg 2-wave 3-comb
   ISYM   =      2    0-nonsym 1-usesym 2-fastsym
   LCORR  =      T    Harris-Foulkes like correction to forces

   POTIM  = 0.3000    time-step for ionic-motion
   TEIN   =    0.0    initial temperature
   TEBEG  =    0.0;   TEEND  =   0.0 temperature during run
   SMASS  =  -3.00    Nose mass-parameter (am)
   estimated Nose-frequenzy (Omega)   =  0.10E-29 period in steps =****** mass=  -0.661E-27a.u.
   SCALEE = 1.0000    scale energy and forces
   NPACO  =    256;   APACO  = 16.0  distance and # of slots for P.C.
   PSTRESS=    0.0 pullay stress

  Mass of Ions in am
   POMASS =  28.09
  Ionic Valenz
   ZVAL   =   4.00
  Atomic Wigner-Seitz radii
   RWIGS  =  -1.00
  virtual crystal weights 
   VCA    =   1.00
   NELECT =      32.0000    total number of electrons
   NUPDOWN=      -1.0000    fix difference up-down

 DOS related values:
   EMIN   =  10.00;   EMAX   =-10.00  energy-range for DOS
   EFERMI =   0.00
   ISMEAR =    -5;   SIGMA  =   0.05  broadening in eV -4-tet -1-fermi 0-gaus

 Electronic relaxation 2 (details)
   IALGO  =     68    algorithm
   LDIAG  =      T    sub-space diagonalisation (order eigenvalues)
   LSUBROT=      F    optimize rotation matrix (better conditioning)
   TURBO    =      0    0=normal 1=particle mesh
   IRESTART =      0    0=no restart 2=restart with 2 vectors
   NREBOOT  =      0    no. of reboots
   NMIN     =      0    reboot dimension
   EREF     =   0.00    reference energy to select bands
   IMIX   =      4    mixing-type and parameters
     AMIX     =   0.40;   BMIX     =  1.00
     AMIX_MAG =   1.60;   BMIX_MAG =  1.00
     AMIN     =   0.10
     WC   =   100.;   INIMIX=   1;  MIXPRE=   1;  MAXMIX=  40

 Intra band minimization:
   WEIMIN = 0.0010     energy-eigenvalue tresh-hold
   EBREAK =  0.11E-07  absolut break condition
   DEPER  =   0.30     relativ break condition  

   TIME   =   0.40     timestep for ELM

  volume/ion in A,a.u.               =      19.86       134.03
  Fermi-wavevector in a.u.,A,eV,Ry     =   0.959609  1.813398 12.528911  0.920849
  Thomas-Fermi vector in A             =   2.088820

 Write flags
   LWAVE  =      F    write WAVECAR
   LCHARG =      F    write CHGCAR
   LVTOT  =      F    write LOCPOT, total local potential
   LVHAR  =      F    write LOCPOT, Hartree potential only
   LELF   =      F    write electronic localiz. function (ELF)
   LORBIT =      0    0 simple, 1 ext, 2 COOP (PROOUT)


 Dipole corrections
   LMONO  =      F    monopole corrections only (constant potential shift)
   LDIPOL =      F    correct potential (dipole corrections)
   IDIPOL =      0    1-x, 2-y, 3-z, 4-all directions 
   EPSILON=  1.0000000 bulk dielectric constant

 Exchange correlation treatment:
   GGA     =    PS    GGA type
   LEXCH   =    14    internal setting for exchange type
   VOSKOWN=      0    Vosko Wilk Nusair interpolation
   LHFCALC =     F    Hartree Fock is set to
   LHFONE  =     F    Hartree Fock one center treatment
   AEXX    =    0.0000 exact exchange contribution

 Linear response parameters
   LEPSILON=     F    determine dielectric tensor
   LRPA    =     F    only Hartree local field effects (RPA)
   LNABLA  =     F    use nabla operator in PAW spheres
   LVEL    =     F    velocity operator in full k-point grid
   LINTERFAST=   F  fast interpolation
   KINTER  =     0    interpolate to denser k-point grid
   CSHIFT  =0.1000    complex shift for real part using Kramers Kronig
   OMEGAMAX=  -1.0    maximum frequency
   DEG_THRESHOLD= 0.2000000E-02 threshold for treating states as degnerate
   RTIME   =    0.100 relaxation time in fs

 Orbital magnetization related:
   ORBITALMAG=     F  switch on orbital magnetization
   LCHIMAG   =     F  perturbation theory with respect to B field
   DQ        =  0.001000  dq finite difference perturbation B field



--------------------------------------------------------------------------------------------------------


 conjugate gradient relaxation of ions
 charge density and potential will be updated during run
 non-spin polarized calculation
 RMM-DIIS sequential band-by-band and
  variant of blocked Davidson during initial phase
 perform sub-space diagonalisation
    before iterative eigenvector-optimisation
 modified Broyden-mixing scheme, WC =      100.0
 initial mixing is a Kerker type mixing with AMIX =  0.4000 and BMIX =      1.0000
 Hartree-type preconditioning will be used
 using additional bands            6
 reciprocal scheme for non local part
 use partial core corrections
 calculate Harris-corrections to forces   (improved forces if not selfconsistent)
 use gradient corrections 
 use of overlap-Matrix (Vanderbilt PP)
 Fermi weights with tetrahedron method with Bloechl corrections


--------------------------------------------------------------------------------------------------------


  energy-cutoff  :      400.00
  volume of cell :      158.89
      direct lattice vectors                 reciprocal lattice vectors
     5.380109037 -0.027172268  0.000000000     0.185874533  0.000929373 -0.000000000
    -0.027172268  5.434453573  0.000000000     0.000929373  0.184015787 -0.000000000
     0.000000000  0.000000000  5.434453573    -0.000000000 -0.000000000  0.184011141

  length of vectors
     5.380177654  5.434521503  5.434453573     0.185876856  0.184018134  0.184011141



 k-points in units of 2pi/SCALE and weight: Automatic                               
   0.00000000  0.00000000  0.00000000       0.001
   0.01548954  0.00007745  0.00000000       0.001
   0.03097909  0.00015490  0.00000000       0.001
   0.04646863  0.00023234  0.00000000       0.001
   0.06195818  0.00030979  0.00000000       0.001
   0.07744772  0.00038724  0.00000000       0.001
   0.09293727  0.00046469  0.00000000       0.001
   0.00007745  0.01533465  0.00000000       0.001
   0.01556699  0.01541210  0.00000000       0.001
   0.03105654  0.01548954  0.00000000       0.001
   0.04654608  0.01556699  0.00000000       0.001
   0.06203563  0.01564444  0.00000000       0.001
   0.07752517  0.01572189  0.00000000       0.001
   0.09301471  0.01579934  0.00000000       0.001
  -0.07737027  0.01494741  0.00000000       0.001
  -0.06188073  0.01502486  0.00000000       0.001
  -0.04639119  0.01510231  0.00000000       0.001
  -0.03090164  0.01517975  0.00000000       0.001
  -0.01541210  0.01525720  0.00000000       0.001
   0.00015490  0.03066930  0.00000000       0.001
   0.01564444  0.03074675  0.00000000       0.001
   0.03113398  0.03082419  0.00000000       0.001
   0.04662353  0.03090164  0.00000000       0.001
   0.06211307  0.03097909  0.00000000       0.001
   0.07760262  0.03105654  0.00000000       0.001
   0.09309216  0.03113398  0.00000000       0.001
  -0.07729283  0.03028206  0.00000000       0.001
  -0.06180328  0.03035951  0.00000000       0.001
  -0.04631374  0.03043695  0.00000000       0.001
  -0.03082419  0.03051440  0.00000000       0.001
  -0.01533465  0.03059185  0.00000000       0.001
   0.00023234  0.04600395  0.00000000       0.001
   0.01572189  0.04608139  0.00000000       0.001
   0.03121143  0.04615884  0.00000000       0.001
   0.04670098  0.04623629  0.00000000       0.001
   0.06219052  0.04631374  0.00000000       0.001
   0.07768007  0.04639119  0.00000000       0.001
   0.09316961  0.04646863  0.00000000       0.001
  -0.07721538  0.04561671  0.00000000       0.001
  -0.06172583  0.04569416  0.00000000       0.001
  -0.04623629  0.04577160  0.00000000       0.001
  -0.03074675  0.04584905  0.00000000       0.001
  -0.01525720  0.04592650  0.00000000       0.001
   0.00030979  0.06133860  0.00000000       0.001
   0.01579934  0.06141604  0.00000000       0.001
   0.03128888  0.06149349  0.00000000       0.001
   0.04677842  0.06157094  0.00000000       0.001
   0.06226797  0.06164839  0.00000000       0.001
   0.07775751  0.06172583  0.00000000       0.001
   0.09324706  0.06180328  0.00000000       0.001
  -0.07713793  0.06095136  0.00000000       0.001
  -0.06164839  0.06102880  0.00000000       0.001
  -0.04615884  0.06110625  0.00000000       0.001
  -0.03066930  0.06118370  0.00000000       0.001
  -0.01517975  0.06126115  0.00000000       0.001
   0.00038724  0.07667324  0.00000000       0.001
   0.01587678  0.07675069  0.00000000       0.001
   0.03136633  0.07682814  0.00000000       0.001
   0.04685587  0.07690559  0.00000000       0.001
   0.06234542  0.07698304  0.00000000       0.001
   0.07783496  0.07706048  0.00000000       0.001
   0.09332450  0.07713793  0.00000000       0.001
  -0.07706048  0.07628601  0.00000000       0.001
  -0.06157094  0.07636345  0.00000000       0.001
  -0.04608139  0.07644090  0.00000000       0.001
  -0.03059185  0.07651835  0.00000000       0.001
  -0.01510231  0.07659580  0.00000000       0.001
   0.00046469  0.09200789  0.00000000       0.001
   0.01595423  0.09208534  0.00000000       0.001
   0.03144378  0.09216279  0.00000000       0.001
   0.04693332  0.09224024  0.00000000       0.001
   0.06242286  0.09231768  0.00000000       0.001
   0.07791241  0.09239513  0.00000000       0.001
   0.09340195  0.09247258  0.00000000       0.001
   0.00000000  0.00000000  0.01533426       0.001
   0.01548954  0.00007745  0.01533426       0.002
   0.03097909  0.00015490  0.01533426       0.002
   0.04646863  0.00023234  0.01533426       0.002
   0.06195818  0.00030979  0.01533426       0.002
   0.07744772  0.00038724  0.01533426       0.002
   0.09293727  0.00046469  0.01533426       0.001
   0.00007745  0.01533465  0.01533426       0.002
   0.01556699  0.01541210  0.01533426       0.002
   0.03105654  0.01548954  0.01533426       0.002
   0.04654608  0.01556699  0.01533426       0.002
   0.06203563  0.01564444  0.01533426       0.002
   0.07752517  0.01572189  0.01533426       0.002
   0.09301471  0.01579934  0.01533426       0.002
  -0.07737027  0.01494741  0.01533426       0.002
  -0.06188073  0.01502486  0.01533426       0.002
  -0.04639119  0.01510231  0.01533426       0.002
  -0.03090164  0.01517975  0.01533426       0.002
  -0.01541210  0.01525720  0.01533426       0.002
   0.00015490  0.03066930  0.01533426       0.002
   0.01564444  0.03074675  0.01533426       0.002
   0.03113398  0.03082419  0.01533426       0.002
   0.04662353  0.03090164  0.01533426       0.002
   0.06211307  0.03097909  0.01533426       0.002
   0.07760262  0.03105654  0.01533426       0.002
   0.09309216  0.03113398  0.01533426       0.002
  -0.07729283  0.03028206  0.01533426       0.002
  -0.06180328  0.03035951  0.01533426       0.002
  -0.04631374  0.03043695  0.01533426       0.002
  -0.03082419  0.03051440  0.01533426       0.002
  -0.01533465  0.03059185  0.01533426       0.002
   0.00023234  0.04600395  0.01533426       0.002
   0.01572189  0.04608139  0.01533426       0.002
   0.03121143  0.04615884  0.01533426       0.002
   0.04670098  0.04623629  0.01533426       0.002
   0.06219052  0.04631374  0.01533426       0.002
   0.07768007  0.04639119  0.01533426       0.002
   0.09316961  0.04646863  0.01533426       0.002
  -0.07721538  0.04561671  0.01533426       0.002
  -0.06172583  0.04569416  0.01533426       0.002
  -0.04623629  0.04577160  0.01533426       0.002
  -0.03074675  0.04584905  0.01533426       0.002
  -0.01525720  0.04592650  0.01533426       0.002
   0.00030979  0.06133860  0.01533426       0.002
   0.01579934  0.06141604  0.01533426       0.002
   0.03128888  0.06149349  0.01533426       0.002
   0.04677842  0.06157094  0.01533426       0.002
   0.06226797  0.06164839  0.01533426       0.002
   0.07775751  0.06172583  0.01533426       0.002
   0.09324706  0.06180328  0.01533426       0.002
  -0.07713793  0.06095136  0.01533426       0.002
  -0.06164839  0.06102880  0.01533426       0.002
  -0.04615884  0.06110625  0.01533426       0.002
  -0.03066930  0.06118370  0.01533426       0.002
  -0.01517975  0.06126115  0.01533426       0.002
   0.00038724  0.07667324  0.01533426       0.002
   0.01587678  0.07675069  0.01533426       0.002
   0.03136633  0.07682814  0.01533426       0.002
   0.04685587  0.07690559  0.01533426       0.002
   0.06234542  0.07698304  0.01533426       0.002
   0.07783496  0.07706048  0.01533426       0.002
   0.09332450  0.07713793  0.01533426       0.002
  -0.07706048  0.07628601  0.01533426       0.002
  -0.06157094  0.07636345  0.01533426       0.002
  -0.04608139  0.07644090  0.01533426       0.002
  -0.03059185  0.07651835  0.01533426       0.002
  -0.01510231  0.07659580  0.01533426       0.002
   0.00046469  0.09200789  0.01533426       0.001
   0.01595423  0.09208534  0.01533426       0.002
   0.03144378  0.09216279  0.01533426       0.002
   0.04693332  0.09224024  0.01533426       0.002
   0.06242286  0.09231768  0.01533426       0.002
   0.07791241  0.09239513  0.01533426       0.002
   0.09340195  0.09247258  0.01533426       0.001
   0.00000000  0.00000000  0.03066852       0.001
   0.01548954  0.00007745  0.03066852       0.002
   0.03097909  0.00015490  0.03066852       0.002
   0.04646863  0.00023234  0.03066852       0.002
   0.06195818  0.00030979  0.03066852       0.002
   0.07744772  0.00038724  0.03066852       0.002
   0.09293727  0.00046469  0.03066852       0.001
   0.00007745  0.01533465  0.03066852       0.002
   0.01556699  0.01541210  0.03066852       0.002
   0.03105654  0.01548954  0.03066852       0.002
   0.04654608  0.01556699  0.03066852       0.002
   0.06203563  0.01564444  0.03066852       0.002
   0.07752517  0.01572189  0.03066852       0.002
   0.09301471  0.01579934  0.03066852       0.002
  -0.07737027  0.01494741  0.03066852       0.002
  -0.06188073  0.01502486  0.03066852       0.002
  -0.04639119  0.01510231  0.03066852       0.002
  -0.03090164  0.01517975  0.03066852       0.002
  -0.01541210  0.01525720  0.03066852       0.002
   0.00015490  0.03066930  0.03066852       0.002
   0.01564444  0.03074675  0.03066852       0.002
   0.03113398  0.03082419  0.03066852       0.002
   0.04662353  0.03090164  0.03066852       0.002
   0.06211307  0.03097909  0.03066852       0.002
   0.07760262  0.03105654  0.03066852       0.002
   0.09309216  0.03113398  0.03066852       0.002
  -0.07729283  0.03028206  0.03066852       0.002
  -0.06180328  0.03035951  0.03066852       0.002
  -0.04631374  0.03043695  0.03066852       0.002
  -0.03082419  0.03051440  0.03066852       0.002
  -0.01533465  0.03059185  0.03066852       0.002
   0.00023234  0.04600395  0.03066852       0.002
   0.01572189  0.04608139  0.03066852       0.002
   0.03121143  0.04615884  0.03066852       0.002
   0.04670098  0.04623629  0.03066852       0.002
   0.06219052  0.04631374  0.03066852       0.002
   0.07768007  0.04639119  0.03066852       0.002
   0.09316961  0.04646863  0.03066852       0.002
  -0.07721538  0.04561671  0.03066852       0.002
  -0.06172583  0.04569416  0.03066852       0.002
  -0.04623629  0.04577160  0.03066852       0.002
  -0.03074675  0.04584905  0.03066852       0.002
  -0.01525720  0.04592650  0.03066852       0.002
   0.00030979  0.06133860  0.03066852       0.002
   0.01579934  0.06141604  0.03066852       0.002
   0.03128888  0.06149349  0.03066852       0.002
   0.04677842  0.06157094  0.03066852       0.002
   0.06226797  0.06164839  0.03066852       0.002
   0.07775751  0.06172583  0.03066852       0.002
   0.09324706  0.06180328  0.03066852       0.002
  -0.07713793  0.06095136  0.03066852       0.002
  -0.06164839  0.06102880  0.03066852       0.002
  -0.04615884  0.06110625  0.03066852       0.002
  -0.03066930  0.06118370  0.03066852       0.002
  -0.01517975  0.06126115  0.03066852       0.002
   0.00038724  0.07667324  0.03066852       0.002
   0.01587678  0.07675069  0.03066852       0.002
   0.03136633  0.07682814  0.03066852       0.002
   0.04685587  0.07690559  0.03066852       0.002
   0.06234542  0.07698304  0.03066852       0.002
   0.07783496  0.07706048  0.03066852       0.002
   0.09332450  0.07713793  0.03066852       0.002
  -0.07706048  0.07628601  0.03066852       0.002
  -0.06157094  0.07636345  0.03066852       0.002
  -0.04608139  0.07644090  0.03066852       0.002
  -0.03059185  0.07651835  0.03066852       0.002
  -0.01510231  0.07659580  0.03066852       0.002
   0.00046469  0.09200789  0.03066852       0.001
   0.01595423  0.09208534  0.03066852       0.002
   0.03144378  0.09216279  0.03066852       0.002
   0.04693332  0.09224024  0.03066852       0.002
   0.06242286  0.09231768  0.03066852       0.002
   0.07791241  0.09239513  0.03066852       0.002
   0.09340195  0.09247258  0.03066852       0.001
   0.00000000  0.00000000  0.04600279       0.001
   0.01548954  0.00007745  0.04600279       0.002
   0.03097909  0.00015490  0.04600279       0.002
   0.04646863  0.00023234  0.04600279       0.002
   0.06195818  0.00030979  0.04600279       0.002
   0.07744772  0.00038724  0.04600279       0.002
   0.09293727  0.00046469  0.04600279       0.001
   0.00007745  0.01533465  0.04600279       0.002
   0.01556699  0.01541210  0.04600279       0.002
   0.03105654  0.01548954  0.04600279       0.002
   0.04654608  0.01556699  0.04600279       0.002
   0.06203563  0.01564444  0.04600279       0.002
   0.07752517  0.01572189  0.04600279       0.002
   0.09301471  0.01579934  0.04600279       0.002
  -0.07737027  0.01494741  0.04600279       0.002
  -0.06188073  0.01502486  0.04600279       0.002
  -0.04639119  0.01510231  0.04600279       0.002
  -0.03090164  0.01517975  0.04600279       0.002
  -0.01541210  0.01525720  0.04600279       0.002
   0.00015490  0.03066930  0.04600279       0.002
   0.01564444  0.03074675  0.04600279       0.002
   0.03113398  0.03082419  0.04600279       0.002
   0.04662353  0.03090164  0.04600279       0.002
   0.06211307  0.03097909  0.04600279       0.002
   0.07760262  0.03105654  0.04600279       0.002
   0.09309216  0.03113398  0.04600279       0.002
  -0.07729283  0.03028206  0.04600279       0.002
  -0.06180328  0.03035951  0.04600279       0.002
  -0.04631374  0.03043695  0.04600279       0.002
  -0.03082419  0.03051440  0.04600279       0.002
  -0.01533465  0.03059185  0.04600279       0.002
   0.00023234  0.04600395  0.04600279       0.002
   0.01572189  0.04608139  0.04600279       0.002
   0.03121143  0.04615884  0.04600279       0.002
   0.04670098  0.04623629  0.04600279       0.002
   0.06219052  0.04631374  0.04600279       0.002
   0.07768007  0.04639119  0.04600279       0.002
   0.09316961  0.04646863  0.04600279       0.002
  -0.07721538  0.04561671  0.04600279       0.002
  -0.06172583  0.04569416  0.04600279       0.002
  -0.04623629  0.04577160  0.04600279       0.002
  -0.03074675  0.04584905  0.04600279       0.002
  -0.01525720  0.04592650  0.04600279       0.002
   0.00030979  0.06133860  0.04600279       0.002
   0.01579934  0.06141604  0.04600279       0.002
   0.03128888  0.06149349  0.04600279       0.002
   0.04677842  0.06157094  0.04600279       0.002
   0.06226797  0.06164839  0.04600279       0.002
   0.07775751  0.06172583  0.04600279       0.002
   0.09324706  0.06180328  0.04600279       0.002
  -0.07713793  0.06095136  0.04600279       0.002
  -0.06164839  0.06102880  0.04600279       0.002
  -0.04615884  0.06110625  0.04600279       0.002
  -0.03066930  0.06118370  0.04600279       0.002
  -0.01517975  0.06126115  0.04600279       0.002
   0.00038724  0.07667324  0.04600279       0.002
   0.01587678  0.07675069  0.04600279       0.002
   0.03136633  0.07682814  0.04600279       0.002
   0.04685587  0.07690559  0.04600279       0.002
   0.06234542  0.07698304  0.04600279       0.002
   0.07783496  0.07706048  0.04600279       0.002
   0.09332450  0.07713793  0.04600279       0.002
  -0.07706048  0.07628601  0.04600279       0.002
  -0.06157094  0.07636345  0.04600279       0.002
  -0.04608139  0.07644090  0.04600279       0.002
  -0.03059185  0.07651835  0.04600279       0.002
  -0.01510231  0.07659580  0.04600279       0.002
   0.00046469  0.09200789  0.04600279       0.001
   0.01595423  0.09208534  0.04600279       0.002
   0.03144378  0.09216279  0.04600279       0.002
   0.04693332  0.09224024  0.04600279       0.002
   0.06242286  0.09231768  0.04600279       0.002
   0.07791241  0.09239513  0.04600279       0.002
   0.09340195  0.09247258  0.04600279       0.001
   0.00000000  0.00000000  0.06133705       0.001
   0.01548954  0.00007745  0.06133705       0.002
   0.03097909  0.00015490  0.06133705       0.002
   0.04646863  0.00023234  0.06133705       0.002
   0.06195818  0.00030979  0.06133705       0.002
[...]
      8      -0.8950      2.00000
      9       4.2294      2.00000
     10       4.2294      2.00000
     11       4.4970      2.00000
     12       4.4970      2.00000
     13       4.5540      2.00000
     14       4.5540      2.00000
     15       4.6060      2.00000
     16       4.6060      2.00000
     17       7.5240      0.00000
     18       7.5240      0.00000
     19       7.8342      0.00000
     20       7.8342      0.00000
     21       9.0728      0.00000
     22       9.0746      0.00000

 k-point   506 :       0.5000    0.4167    0.5000
  band No.  band energies     occupation 
      1      -3.8385      2.00000
      2      -3.8385      2.00000
      3      -3.7903      2.00000
      4      -3.7903      2.00000
      5      -1.1042      2.00000
      6      -1.1042      2.00000
      7      -1.0812      2.00000
      8      -1.0812      2.00000
      9       4.4040      2.00000
     10       4.4040      2.00000
     11       4.4713      2.00000
     12       4.4713      2.00000
     13       4.6728      2.00000
     14       4.6728      2.00000
     15       4.7189      2.00000
     16       4.7189      2.00000
     17       7.5037      0.00000
     18       7.5037      0.00000
     19       7.5992      0.00000
     20       7.5992      0.00000
     21       9.0917      0.00000
     22       9.0919      0.00000

 k-point   507 :      -0.4167    0.4167    0.5000
  band No.  band energies     occupation 
      1      -3.9602      2.00000
      2      -3.9602      2.00000
      3      -3.7039      2.00000
      4      -3.7039      2.00000
      5      -1.1246      2.00000
      6      -1.1246      2.00000
      7      -0.9259      2.00000
      8      -0.9259      2.00000
      9       4.1508      2.00000
     10       4.1508      2.00000
     11       4.5279      2.00000
     12       4.5279      2.00000
     13       4.5317      2.00000
     14       4.5317      2.00000
     15       4.6949      2.00000
     16       4.6949      2.00000
     17       7.6215      0.00000
     18       7.6215      0.00000
     19       7.7535      0.00000
     20       7.7535      0.00000
     21       9.0261      0.00000
     22       9.0279      0.00000

 k-point   508 :      -0.3333    0.4167    0.5000
  band No.  band energies     occupation 
      1      -4.0940      2.00000
      2      -4.0940      2.00000
      3      -3.6725      2.00000
      4      -3.6725      2.00000
      5      -1.0145      2.00000
      6      -1.0145      2.00000
      7      -0.6341      2.00000
      8      -0.6341      2.00000
      9       3.6711      2.00000
     10       3.6711      2.00000
     11       4.2685      2.00000
     12       4.2685      2.00000
     13       4.3963      2.00000
     14       4.3963      2.00000
     15       4.6330      2.00000
     16       4.6330      2.00000
     17       7.9023      0.00000
     18       7.9023      0.00000
     19       8.0591      0.00000
     20       8.0591      0.00000
     21       9.0380      0.00000
     22       9.0492      0.00000

 k-point   509 :      -0.2500    0.4167    0.5000
  band No.  band energies     occupation 
      1      -4.2168      2.00000
      2      -4.2168      2.00000
      3      -3.6859      2.00000
      4      -3.6859      2.00000
      5      -0.7712      2.00000
      6      -0.7712      2.00000
      7      -0.2588      2.00000
      8      -0.2588      2.00000
      9       3.0883      2.00000
     10       3.0883      2.00000
     11       3.7446      2.00000
     12       3.7446      2.00000
     13       4.3002      2.00000
     14       4.3002      2.00000
     15       4.6312      2.00000
     16       4.6312      2.00000
     17       8.1831      0.00000
     18       8.1831      0.00000
     19       8.2603      0.00000
     20       8.2603      0.00000
     21       9.1413      0.00000
     22       9.1413      0.00000

 k-point   510 :      -0.1667    0.4167    0.5000
  band No.  band energies     occupation 
      1      -4.3126      2.00000
      2      -4.3126      2.00000
      3      -3.7199      2.00000
      4      -3.7199      2.00000
      5      -0.4438      2.00000
      6      -0.4438      2.00000
      7       0.1651      2.00000
      8       0.1651      2.00000
      9       2.5095      2.00000
     10       2.5095      2.00000
     11       3.1682      2.00000
     12       3.1682      2.00000
     13       4.2303      2.00000
     14       4.2303      2.00000
     15       4.6212      2.00000
     16       4.6212      2.00000
     17       8.1581      0.00000
     18       8.1581      0.00000
     19       8.4909      0.00000
     20       8.4909      0.00000
     21       9.3656      0.00000
     22       9.3656      0.00000

 k-point   511 :      -0.0833    0.4167    0.5000
  band No.  band energies     occupation 
      1      -4.3718      2.00000
      2      -4.3718      2.00000
      3      -3.7518      2.00000
      4      -3.7518      2.00000
      5      -0.1204      2.00000
      6      -0.1204      2.00000
      7       0.5726      2.00000
      8       0.5726      2.00000
      9       2.0363      2.00000
     10       2.0363      2.00000
     11       2.6539      2.00000
     12       2.6539      2.00000
     13       4.1887      2.00000
     14       4.1887      2.00000
     15       4.6085      2.00000
     16       4.6085      2.00000
     17       8.1135      0.00000
     18       8.1135      0.00000
     19       8.5534      0.00000
     20       8.5534      0.00000
     21       9.7239      0.00000
     22       9.7239      0.00000

 k-point   512 :       0.0000    0.5000    0.5000
  band No.  band energies     occupation 
      1      -4.0997      2.00000
      2      -4.0997      2.00000
      3      -4.0997      2.00000
      4      -4.0997      2.00000
      5       0.4007      2.00000
      6       0.4007      2.00000
      7       0.4007      2.00000
      8       0.4007      2.00000
      9       2.0874      2.00000
     10       2.0874      2.00000
     11       2.0874      2.00000
     12       2.0874      2.00000
     13       4.4856      2.00000
     14       4.4856      2.00000
     15       4.4856      2.00000
     16       4.4856      2.00000
     17       8.1898      0.00000
     18       8.1898      0.00000
     19       8.1898      0.00000
     20       8.1898      0.00000
     21      10.6378      0.00000
     22      10.6378      0.00000

 k-point   513 :       0.0833    0.5000    0.5000
  band No.  band energies     occupation 
      1      -4.0878      2.00000
      2      -4.0878      2.00000
      3      -4.0772      2.00000
      4      -4.0772      2.00000
      5       0.2025      2.00000
      6       0.2025      2.00000
      7       0.2336      2.00000
      8       0.2336      2.00000
      9       2.2930      2.00000
     10       2.2930      2.00000
     11       2.3372      2.00000
     12       2.3372      2.00000
     13       4.4896      2.00000
     14       4.4896      2.00000
     15       4.4991      2.00000
     16       4.4991      2.00000
     17       8.1901      0.00000
     18       8.1901      0.00000
     19       8.2068      0.00000
     20       8.2068      0.00000
     21      10.4074      0.00000
     22      10.4079      0.00000

 k-point   514 :       0.1667    0.5000    0.5000
  band No.  band energies     occupation 
      1      -4.0441      2.00000
      2      -4.0441      2.00000
      3      -4.0230      2.00000
      4      -4.0230      2.00000
      5      -0.1769      2.00000
      6      -0.1769      2.00000
      7      -0.1389      2.00000
      8      -0.1389      2.00000
      9       2.7927      2.00000
     10       2.7927      2.00000
     11       2.8564      2.00000
     12       2.8564      2.00000
     13       4.5094      2.00000
     14       4.5094      2.00000
     15       4.5280      2.00000
     16       4.5280      2.00000
     17       8.1878      0.00000
     18       8.1878      0.00000
     19       8.2234      0.00000
     20       8.2234      0.00000
     21       9.9395      0.00000
     22       9.9395      0.00000

 k-point   515 :       0.2500    0.5000    0.5000
  band No.  band energies     occupation 
      1      -3.9769      2.00000
      2      -3.9769      2.00000
      3      -3.9454      2.00000
      4      -3.9454      2.00000
      5      -0.5643      2.00000
      6      -0.5643      2.00000
      7      -0.5296      2.00000
      8      -0.5296      2.00000
      9       3.3917      2.00000
     10       3.3917      2.00000
     11       3.4637      2.00000
     12       3.4637      2.00000
     13       4.5396      2.00000
     14       4.5396      2.00000
     15       4.5666      2.00000
     16       4.5666      2.00000
     17       8.1077      0.00000
     18       8.1077      0.00000
     19       8.1669      0.00000
     20       8.1669      0.00000
     21       9.4519      0.00000
     22       9.4520      0.00000

 k-point   516 :       0.3333    0.5000    0.5000
  band No.  band energies     occupation 
      1      -3.9013      2.00000
      2      -3.9013      2.00000
      3      -3.8604      2.00000
      4      -3.8604      2.00000
      5      -0.8870      2.00000
      6      -0.8870      2.00000
      7      -0.8583      2.00000
      8      -0.8583      2.00000
      9       3.9893      2.00000
     10       3.9893      2.00000
     11       4.0644      2.00000
     12       4.0644      2.00000
     13       4.5721      2.00000
     14       4.5721      2.00000
     15       4.6060      2.00000
     16       4.6060      2.00000
     17       7.8454      0.00000
     18       7.8454      0.00000
     19       7.9285      0.00000
     20       7.9285      0.00000
     21       9.2038      0.00000
     22       9.2038      0.00000

 k-point   517 :       0.4167    0.5000    0.5000
  band No.  band energies     occupation 
      1      -3.8397      2.00000
      2      -3.8397      2.00000
      3      -3.7916      2.00000
      4      -3.7916      2.00000
      5      -1.1021      2.00000
      6      -1.1021      2.00000
      7      -1.0790      2.00000
      8      -1.0790      2.00000
      9       4.4781      2.00000
     10       4.4781      2.00000
     11       4.5522      2.00000
     12       4.5522      2.00000
     13       4.5982      2.00000
     14       4.5982      2.00000
     15       4.6377      2.00000
     16       4.6377      2.00000
     17       7.4932      0.00000
     18       7.4932      0.00000
     19       7.5893      0.00000
     20       7.5893      0.00000
     21       9.1457      0.00000
     22       9.1457      0.00000

 k-point   518 :       0.5000    0.5000    0.5000
  band No.  band energies     occupation 
      1      -3.8156      2.00000
      2      -3.8156      2.00000
      3      -3.7647      2.00000
      4      -3.7647      2.00000
      5      -1.1781      2.00000
      6      -1.1781      2.00000
      7      -1.1573      2.00000
      8      -1.1573      2.00000
      9       4.6033      2.00000
     10       4.6033      2.00000
     11       4.6440      2.00000
     12       4.6440      2.00000
     13       4.6884      2.00000
     14       4.6884      2.00000
     15       4.7619      2.00000
     16       4.7619      2.00000
     17       7.3221      0.00000
     18       7.3221      0.00000
     19       7.4224      0.00000
     20       7.4224      0.00000
     21       9.0940      0.00000
     22       9.0943      0.00000


--------------------------------------------------------------------------------------------------------


 soft charge-density along one line, spin component           1
         0         1         2         3         4         5         6         7         8         9
 total charge-density along one line

 pseudopotential strength for first ion, spin component:           1
 18.599  -0.002  -0.000  -0.001   0.000   0.000  -0.000  -0.000
 -0.002   0.006   0.000   0.000  -0.000  -0.000  -0.000   0.000
 -0.000   0.000   4.234  -0.000   0.000  -0.006   0.000  -0.000
 -0.001   0.000  -0.000   4.234   0.000   0.000  -0.006  -0.000
  0.000  -0.000   0.000   0.000   4.234  -0.000  -0.000  -0.006
  0.000  -0.000  -0.006   0.000  -0.000   0.005  -0.000   0.000
 -0.000  -0.000   0.000  -0.006  -0.000  -0.000   0.005   0.000
 -0.000   0.000  -0.000  -0.000  -0.006   0.000   0.000   0.005
 total augmentation occupancy for first ion, spin component:           1
  1.482  -0.898  -0.000   0.001  -0.000  -0.000  -0.005   0.000
 -0.898   0.916  -0.000  -0.004   0.000   0.000   0.007   0.000
 -0.000  -0.000   1.025  -0.000   0.005  -0.590   0.000  -0.001
  0.001  -0.004   0.000   1.025  -0.000  -0.000  -0.590   0.000
  0.000  -0.000   0.005   0.000   1.025  -0.001   0.000  -0.586
  0.000   0.000  -0.590   0.000  -0.001   0.397   0.000  -0.000
 -0.005   0.007   0.000  -0.590   0.000   0.000   0.397   0.000
  0.000   0.000  -0.001   0.000  -0.586  -0.000   0.000   0.392


------------------------ aborting loop because EDIFF is reached ----------------------------------------


    CHARGE:  cpu time    0.67: real time    0.67
    FORLOC:  cpu time    0.00: real time    0.00
    FORNL :  cpu time    1.06: real time    1.06
    STRESS:  cpu time    1.75: real time    1.75
    FORCOR:  cpu time    0.01: real time    0.01
    FORHAR:  cpu time    0.00: real time    0.00
    MIXING:  cpu time    0.00: real time    0.00
    OFIELD:  cpu time    0.00: real time    0.00

  FORCE on cell =-STRESS in cart. coord.  units (eV):
  Direction    XX          YY          ZZ          XY          YZ          ZX
  --------------------------------------------------------------------------------------
  Alpha Z    13.07112    13.07112    13.07112
  Ewald    -308.35098  -304.12674  -304.11994     1.06765     0.00000    -0.00000
  Hartree    18.88441    19.59645    19.58958     0.57672    -0.00000    -0.00000
  E(xc)    -102.42711  -102.46506  -102.46543    -0.00932     0.00000    -0.00000
  Local    -112.96409  -118.13356  -118.12774    -1.77180    -0.00000    -0.00000
  n-local   312.11292   312.76130   312.76635     0.09559    -2.20408    -0.39583
  augment   -46.51093   -46.51252   -46.51189    -0.04911    -0.00000    -0.00000
  Kinetic   227.75264   226.45631   226.43787     0.83718    -3.78000    -0.57671
  Fock        0.00000     0.00000     0.00000     0.00000     0.00000     0.00000
  -------------------------------------------------------------------------------------
  Total       1.56800     0.64730     0.63993     0.74691     0.00000     0.00000
  in kB      15.81115     6.52716     6.45284     7.53158     0.00000     0.00000
  external pressure =        9.60 kB  Pullay stress =        0.00 kB


 VOLUME and BASIS-vectors are now :
 -----------------------------------------------------------------------------
  energy-cutoff  :      400.00
  volume of cell :      158.89
      direct lattice vectors                 reciprocal lattice vectors
     5.380109037 -0.027172268  0.000000000     0.185874533  0.000929373 -0.000000000
    -0.027172268  5.434453573  0.000000000     0.000929373  0.184015787 -0.000000000
     0.000000000  0.000000000  5.434453573    -0.000000000 -0.000000000  0.184011141

  length of vectors
     5.380177654  5.434521503  5.434453573     0.185876856  0.184018134  0.184011141


 FORCES acting on ions
    electron-ion (+dipol)            ewald-force                    non-local-force                 convergence-correction
 -----------------------------------------------------------------------------------------------
   -.138E-09 -.160E-09 0.852E+00   -.107E-13 0.711E-14 -.607E+00   0.000E+00 0.347E-17 -.244E+00   0.122E-13 -.333E-14 0.914E-05
   0.138E-09 0.160E-09 -.852E+00   -.113E-13 -.320E-14 0.607E+00   0.000E+00 -.694E-17 0.244E+00   -.158E-13 -.217E-13 -.914E-05
   -.138E-09 -.160E-09 0.852E+00   -.355E-14 0.711E-14 -.607E+00   -.694E-17 -.173E-17 -.244E+00   0.111E-13 -.351E-14 0.914E-05
   0.138E-09 0.160E-09 -.852E+00   -.208E-14 -.356E-14 0.607E+00   0.694E-17 0.694E-17 0.244E+00   0.120E-14 -.213E-13 -.914E-05
   -.138E-09 -.160E-09 0.852E+00   0.711E-14 0.355E-14 -.607E+00   0.000E+00 0.347E-17 -.244E+00   0.165E-14 -.358E-14 0.914E-05
   0.138E-09 0.160E-09 -.852E+00   0.352E-14 -.583E-14 0.607E+00   0.000E+00 -.694E-17 0.244E+00   -.346E-14 0.124E-14 -.914E-05
   -.138E-09 -.160E-09 0.852E+00   0.107E-13 0.355E-14 -.607E+00   -.694E-17 -.173E-17 -.244E+00   -.182E-15 -.304E-14 0.914E-05
   0.138E-09 0.160E-09 -.852E+00   0.712E-14 -.715E-14 0.607E+00   0.694E-17 0.694E-17 0.244E+00   0.127E-13 0.293E-14 -.914E-05
 -----------------------------------------------------------------------------------------------
   -.742E-13 0.730E-12 -.628E-13   0.774E-15 0.158E-14 0.999E-15   0.000E+00 0.347E-17 -.222E-15   0.194E-13 -.523E-13 -.617E-13


 POSITION                                       TOTAL-FORCE (eV/Angst)
 -----------------------------------------------------------------------------------
     -0.00000      0.00000     -0.00378        -0.000000     -0.000000     -0.000067
      4.01470      4.05546      1.36240         0.000000      0.000000      0.000067
     -0.01359      2.71723      2.71344        -0.000000     -0.000000     -0.000067
      4.02829      1.33823      4.07962         0.000000      0.000000      0.000067
      2.69005     -0.01359      2.71344        -0.000000     -0.000000     -0.000067
      1.32465      4.06905      4.07962         0.000000      0.000000      0.000067
      2.67647      2.70364     -0.00378        -0.000000     -0.000000     -0.000067
      1.33823      1.35182      1.36240         0.000000      0.000000      0.000067
 -----------------------------------------------------------------------------------
    total drift:                               -0.000000      0.000000     -0.000000


--------------------------------------------------------------------------------------------------------



  FREE ENERGIE OF THE ION-ELECTRON SYSTEM (eV)
  ---------------------------------------------------
  free  energy   TOTEN  =       -41.84801426 eV

  energy  without entropy=      -41.84801426  energy(sigma->0) =      -41.84801426

 d Force = 0.2113703E-08[ 0.123E-08, 0.300E-08]  d Energy = 0.4459615E-08-0.235E-08
 d Force = 0.1112010E-04[ 0.111E-04, 0.111E-04]  d Ewald  = 0.1112010E-04-0.458E-12


--------------------------------------------------------------------------------------------------------


    POTLOK:  cpu time    0.02: real time    0.02


--------------------------------------------------------------------------------------------------------




--------------------------------------------------------------------------------------------------------


  
 reached required accuracy - stopping structural energy minimisation
     LOOP+:  cpu time   33.11: real time   33.64
    4ORBIT:  cpu time    0.00: real time    0.00
 BZINTS: Fermi energy:  5.999775; 32.000000 electrons
         Band energy:  24.790953;  BLOECHL correction:  0.000000

 total amount of memory used by VASP on root node    64661. kBytes
========================================================================

   base      :      30000. kBytes
   nonl-proj :       8652. kBytes
   fftplans  :        656. kBytes
   grid      :        917. kBytes
   one-center:          3. kBytes
   wavefun   :      24433. kBytes

  
  
 General timing and accounting informations for this job:
 ========================================================
  
                  Total CPU time used (sec):      277.549
                            User time (sec):      276.737
                          System time (sec):        0.812
                         Elapsed time (sec):      278.943
  
                   Maximum memory used (kb):       57340.
                   Average memory used (kb):           0.
  
                          Minor page faults:        14662
                          Major page faults:            0
                 Voluntary context switches:         3077
