Si                                      
           1
     5.380109   -0.027172    0.000000
    -0.027172    5.434454    0.000000
     0.000000    0.000000    5.434454
   Si
   8
Direct configuration=     1
   0.00000000  0.00000000  0.00000000
   0.75000000  0.75000000  0.25000000
   0.00000000  0.50000000  0.50000000
   0.75000000  0.25000000  0.75000000
   0.50000000  0.00000000  0.50000000
   0.25000000  0.75000000  0.75000000
   0.50000000  0.50000000  0.00000000
   0.25000000  0.25000000  0.25000000
Direct configuration=     2
  -0.00000000  0.00000000 -0.00055066
   0.75000000  0.75000000  0.25055066
  -0.00000000  0.50000000  0.49944934
   0.75000000  0.25000000  0.75055066
   0.50000000  0.00000000  0.49944934
   0.25000000  0.75000000  0.75055066
   0.50000000  0.50000000 -0.00055066
   0.25000000  0.25000000  0.25055066
Direct configuration=     3
  -0.00000000  0.00000000 -0.00069636
   0.75000000  0.75000000  0.25069636
  -0.00000000  0.50000000  0.49930364
   0.75000000  0.25000000  0.75069636
   0.50000000  0.00000000  0.49930364
   0.25000000  0.75000000  0.75069636
   0.50000000  0.50000000 -0.00069636
   0.25000000  0.25000000  0.25069636
Direct configuration=     4
  -0.00000000  0.00000000 -0.00069568
   0.75000000  0.75000000  0.25069568
  -0.00000000  0.50000000  0.49930432
   0.75000000  0.25000000  0.75069568
   0.50000000  0.00000000  0.49930432
   0.25000000  0.75000000  0.75069568
   0.50000000  0.50000000 -0.00069568
   0.25000000  0.25000000  0.25069568
Direct configuration=     5
  -0.00000000  0.00000000 -0.00069610
   0.75000000  0.75000000  0.25069610
  -0.00000000  0.50000000  0.49930390
   0.75000000  0.25000000  0.75069610
   0.50000000  0.00000000  0.49930390
   0.25000000  0.75000000  0.75069610
   0.50000000  0.50000000 -0.00069610
   0.25000000  0.25000000  0.25069610
