       N       E                     dE             d eps       ncg     rms          rms(c)
DAV:   1     0.932721692129E+03    0.93272E+03   -0.54050E+04 30576   0.175E+03
DAV:   2     0.157292192756E+01   -0.93115E+03   -0.90037E+03 30576   0.400E+02
DAV:   3    -0.924688896287E+02   -0.94042E+02   -0.89405E+02 32056   0.149E+02
DAV:   4    -0.960056063584E+02   -0.35367E+01   -0.34773E+01 35836   0.284E+01
DAV:   5    -0.960971723723E+02   -0.91566E-01   -0.91343E-01 37008   0.394E+00    0.343E+01
RMM:   6    -0.103649522737E+03   -0.75524E+01   -0.42930E+02 30642   0.124E+02    0.252E+01
RMM:   7    -0.790251280920E+02    0.24624E+02   -0.92312E+01 30576   0.618E+01    0.276E+00
RMM:   8    -0.790851201058E+02   -0.59992E-01   -0.91325E+00 30576   0.157E+01    0.459E+00
RMM:   9    -0.786591948240E+02    0.42593E+00   -0.98280E-01 30576   0.628E+00    0.553E-01
RMM:  10    -0.786536222794E+02    0.55725E-02   -0.30450E-02 30582   0.738E-01    0.313E-01
RMM:  11    -0.786511803696E+02    0.24419E-02   -0.18667E-02 30576   0.580E-01    0.746E-02
RMM:  12    -0.786511191467E+02    0.61223E-04   -0.48172E-04 30580   0.908E-02    0.505E-02
RMM:  13    -0.786510949970E+02    0.24150E-04   -0.19781E-04 30576   0.757E-02    0.236E-02
RMM:  14    -0.786510806760E+02    0.14321E-04   -0.31881E-05 19993   0.348E-02    0.485E-03
RMM:  15    -0.786510810919E+02   -0.41589E-06   -0.56131E-06 17202   0.134E-02
   1 F= -.78651081E+02 E0= -.78646673E+02  d E =-.786511E+02
       N       E                     dE             d eps       ncg     rms          rms(c)
DAV:   1    -0.786513478707E+02   -0.26719E-03   -0.75660E-03 32924   0.327E-01    0.945E-03
RMM:   2    -0.786513545909E+02   -0.67202E-05   -0.10796E-04 28910   0.622E-02    0.110E-02
RMM:   3    -0.786513533055E+02    0.12854E-05   -0.18878E-05 16509   0.237E-02    0.393E-03
RMM:   4    -0.786513520443E+02    0.12612E-05   -0.35246E-06 16087   0.137E-02
   2 F= -.78651352E+02 E0= -.78646949E+02  d E =-.270952E-03
       N       E                     dE             d eps       ncg     rms          rms(c)
DAV:   1    -0.786517654540E+02   -0.41215E-03   -0.67900E-02 31708   0.978E-01    0.283E-02
RMM:   2    -0.786518014172E+02   -0.35963E-04   -0.81597E-04 30576   0.167E-01    0.484E-03
RMM:   3    -0.786518038154E+02   -0.23983E-05   -0.33639E-05 20313   0.290E-02    0.338E-03
RMM:   4    -0.786518042324E+02   -0.41693E-06   -0.68164E-06 16615   0.160E-02
   3 F= -.78651804E+02 E0= -.78647412E+02  d E =-.723140E-03
       N       E                     dE             d eps       ncg     rms          rms(c)
DAV:   1    -0.786518302625E+02   -0.26447E-04   -0.68240E-03 32360   0.310E-01    0.905E-03
RMM:   2    -0.786518331247E+02   -0.28622E-05   -0.80264E-05 26290   0.528E-02    0.264E-03
RMM:   3    -0.786518333871E+02   -0.26245E-06   -0.47053E-06 16094   0.118E-02    0.988E-04
RMM:   4    -0.786518334351E+02   -0.47962E-07   -0.12936E-06 15732   0.707E-03
   4 F= -.78651833E+02 E0= -.78647445E+02  d E =-.752343E-03
       N       E                     dE             d eps       ncg     rms          rms(c)
DAV:   1    -0.786518765885E+02   -0.43201E-04   -0.11089E-02 31300   0.382E-01    0.979E-03
RMM:   2    -0.786518791005E+02   -0.25120E-05   -0.39681E-05 22034   0.371E-02    0.143E-02
RMM:   3    -0.786518818402E+02   -0.27398E-05   -0.80167E-05 27403   0.542E-02    0.167E-02
RMM:   4    -0.786518747147E+02    0.71255E-05   -0.19699E-05 15595   0.297E-02
   5 F= -.78651875E+02 E0= -.78647485E+02  d E =-.412796E-04
       N       E                     dE             d eps       ncg     rms          rms(c)
DAV:   1    -0.786519070057E+02   -0.25165E-04   -0.30609E-02 30868   0.635E-01    0.162E-02
RMM:   2    -0.786519020974E+02    0.49083E-05   -0.59391E-05 27249   0.501E-02    0.238E-03
RMM:   3    -0.786519023231E+02   -0.22577E-06   -0.30301E-06 15821   0.891E-03    0.242E-03
RMM:   4    -0.786519020732E+02    0.24997E-06   -0.11507E-06 15579   0.607E-03
   6 F= -.78651902E+02 E0= -.78647510E+02  d E =-.686381E-04
       N       E                     dE             d eps       ncg     rms          rms(c)
DAV:   1    -0.786519127652E+02   -0.10442E-04   -0.35646E-03 31364   0.220E-01    0.561E-03
RMM:   2    -0.786519127247E+02    0.40496E-07   -0.12671E-05 15769   0.240E-02    0.516E-03
RMM:   3    -0.786519127951E+02   -0.70406E-07   -0.33845E-06 15486   0.104E-02    0.173E-03
RMM:   4    -0.786519125778E+02    0.21735E-06   -0.59202E-07 13313   0.394E-03
   7 F= -.78651913E+02 E0= -.78647521E+02  d E =-.105046E-04
       N       E                     dE             d eps       ncg     rms          rms(c)
DAV:   1    -0.786519155921E+02   -0.27970E-05   -0.26613E-03 31008   0.190E-01    0.477E-03
RMM:   2    -0.786519151964E+02    0.39576E-06   -0.71359E-06 15618   0.182E-02    0.801E-04
RMM:   3    -0.786519152915E+02   -0.95154E-07   -0.10229E-06 15371   0.499E-03    0.101E-03
RMM:   4    -0.786519152464E+02    0.45095E-07   -0.15730E-07  9082   0.304E-03
   8 F= -.78651915E+02 E0= -.78647525E+02  d E =-.131733E-04
       N       E                     dE             d eps       ncg     rms          rms(c)
DAV:   1    -0.786519186738E+02   -0.33822E-05   -0.16405E-03 31136   0.149E-01    0.356E-03
RMM:   2    -0.786519189444E+02   -0.27061E-06   -0.49894E-06 15448   0.143E-02    0.451E-03
RMM:   3    -0.786519184123E+02    0.53207E-06   -0.17719E-06 15341   0.827E-03    0.120E-03
RMM:   4    -0.786519184985E+02   -0.86229E-07   -0.66881E-07 14654   0.552E-03
   9 F= -.78651918E+02 E0= -.78647530E+02  d E =-.325210E-05
       N       E                     dE             d eps       ncg     rms          rms(c)
DAV:   1    -0.786519217925E+02   -0.33802E-05   -0.60189E-03 30688   0.285E-01    0.692E-03
RMM:   2    -0.786519206985E+02    0.10940E-05   -0.98997E-06 15544   0.222E-02    0.160E-03
RMM:   3    -0.786519209212E+02   -0.22267E-06   -0.16282E-06 15340   0.717E-03    0.198E-03
RMM:   4    -0.786519208886E+02    0.32594E-07   -0.34827E-07 15217   0.399E-03
  10 F= -.78651921E+02 E0= -.78647537E+02  d E =-.564212E-05
       N       E                     dE             d eps       ncg     rms          rms(c)
DAV:   1    -0.786519219618E+02   -0.10407E-05   -0.10843E-03 31152   0.121E-01    0.305E-03
RMM:   2    -0.786519218100E+02    0.15181E-06   -0.34898E-06 15378   0.122E-02    0.378E-03
RMM:   3    -0.786519222407E+02   -0.43068E-06   -0.82512E-07 14982   0.364E-03    0.501E-03
RMM:   4    -0.786519219001E+02    0.34061E-06   -0.10804E-06 14537   0.693E-03
  11 F= -.78651922E+02 E0= -.78647539E+02  d E =-.101152E-05
