AlCu                                    
           1
    12.119773    0.000000    0.008482
     0.000000    4.104732    0.000000
    -3.973711    0.000000    5.628010
   Al   Cu
  10  10
Direct configuration=     1
   0.50000000  0.00000000  0.50000000
   0.15587366  0.00000000  0.46137374
   0.84412632  0.00000000  0.53862623
   0.87805559  0.50000000  0.99541334
   0.12194440  0.50000000  0.00458663
   0.00000000  0.50000000  0.50000000
   0.65587368  0.50000000  0.46137374
   0.34412635  0.50000000  0.53862623
   0.37805559  0.00000000  0.99541334
   0.62194441  0.00000000  0.00458663
   0.00000000  0.00000000  0.00000000
   0.25805145  0.00000000  0.24172886
   0.74194852  0.00000000  0.75827112
   0.10866387  0.00000000  0.77167894
   0.89133614  0.00000000  0.22832103
   0.50000000  0.50000000  0.00000000
   0.75805148  0.50000000  0.24172886
   0.24194855  0.50000000  0.75827112
   0.60866386  0.50000000  0.77167894
   0.39133614  0.50000000  0.22832103
Direct configuration=     2
   0.50000000  0.00000000  0.50000000
   0.15591868  0.00000000  0.46137986
   0.84408130 -0.00000000  0.53862011
   0.87813336  0.50000000  0.99534548
   0.12186663  0.50000000  0.00465449
   0.00000000  0.50000000  0.50000000
   0.65591870  0.50000000  0.46137986
   0.34408133  0.50000000  0.53862011
   0.37813336  0.00000000  0.99534548
   0.62186664  0.00000000  0.00465449
   0.00000000  0.00000000 -0.00000000
   0.25804806  0.00000000  0.24174101
   0.74195191 -0.00000000  0.75825897
   0.10864205  0.00000000  0.77158391
   0.89135796  0.00000000  0.22841606
   0.50000000  0.50000000 -0.00000000
   0.75804809  0.50000000  0.24174101
   0.24195194  0.50000000  0.75825897
   0.60864204  0.50000000  0.77158391
   0.39135796  0.50000000  0.22841606
Direct configuration=     3
   0.50000000  0.00000000  0.50000000
   0.15605374  0.00000000  0.46139822
   0.84394624 -0.00000000  0.53860175
   0.87836667  0.50000000  0.99514190
   0.12163332  0.50000000  0.00485807
   0.00000000  0.50000000  0.50000000
   0.65605376  0.50000000  0.46139822
   0.34394627  0.50000000  0.53860175
   0.37836667  0.00000000  0.99514190
   0.62163333  0.00000000  0.00485807
   0.00000000  0.00000000 -0.00000000
   0.25803789  0.00000000  0.24177746
   0.74196208 -0.00000000  0.75822252
   0.10857660  0.00000000  0.77129883
   0.89142342  0.00000000  0.22870114
   0.50000000  0.50000000 -0.00000000
   0.75803792  0.50000000  0.24177746
   0.24196211  0.50000000  0.75822252
   0.60857658  0.50000000  0.77129883
   0.39142342  0.50000000  0.22870114
Direct configuration=     4
   0.50000000  0.00000000  0.50000000
   0.15609651  0.00000000  0.46140404
   0.84390347 -0.00000000  0.53859593
   0.87844055  0.50000000  0.99507743
   0.12155944  0.50000000  0.00492254
   0.00000000  0.50000000  0.50000000
   0.65609653  0.50000000  0.46140404
   0.34390350  0.50000000  0.53859593
   0.37844055  0.00000000  0.99507743
   0.62155945  0.00000000  0.00492254
   0.00000000  0.00000000 -0.00000000
   0.25803467  0.00000000  0.24178900
   0.74196530 -0.00000000  0.75821098
   0.10855587  0.00000000  0.77120855
   0.89144415  0.00000000  0.22879142
   0.50000000  0.50000000 -0.00000000
   0.75803470  0.50000000  0.24178900
   0.24196533  0.50000000  0.75821098
   0.60855585  0.50000000  0.77120855
   0.39144415  0.50000000  0.22879142
Direct configuration=     5
   0.50000000  0.00000000  0.50000000
   0.15610419  0.00000000  0.46144512
   0.84389580 -0.00000000  0.53855485
   0.87845087  0.50000000  0.99504175
   0.12154912  0.50000000  0.00495822
   0.00000000  0.50000000  0.50000000
   0.65610420  0.50000000  0.46144512
   0.34389583  0.50000000  0.53855485
   0.37845087  0.00000000  0.99504175
   0.62154913  0.00000000  0.00495822
   0.00000000  0.00000000  0.00000000
   0.25803438  0.00000000  0.24168424
   0.74196559 -0.00000000  0.75831574
   0.10854937  0.00000000  0.77118707
   0.89145064  0.00000000  0.22881290
   0.50000000  0.50000000  0.00000000
   0.75803441  0.50000000  0.24168424
   0.24196562  0.50000000  0.75831574
   0.60854936  0.50000000  0.77118707
   0.39145064  0.50000000  0.22881290
Direct configuration=     6
   0.50000000  0.00000000  0.50000000
   0.15611693  0.00000000  0.46151336
   0.84388306 -0.00000000  0.53848661
   0.87846802  0.50000000  0.99498249
   0.12153197  0.50000000  0.00501748
   0.00000000  0.50000000  0.50000000
   0.65611694  0.50000000  0.46151336
   0.34388309  0.50000000  0.53848661
   0.37846802  0.00000000  0.99498249
   0.62153198  0.00000000  0.00501748
   0.00000000 -0.00000000  0.00000000
   0.25803391  0.00000000  0.24151025
   0.74196606 -0.00000000  0.75848974
   0.10853859  0.00000000  0.77115139
   0.89146143  0.00000000  0.22884858
   0.50000000  0.50000000  0.00000000
   0.75803394  0.50000000  0.24151025
   0.24196609  0.50000000  0.75848974
   0.60853857  0.50000000  0.77115139
   0.39146143  0.50000000  0.22884858
Direct configuration=     7
   0.50000000 -0.00000000  0.50000000
   0.15614251 -0.00000000  0.46150439
   0.84385747 -0.00000000  0.53849558
   0.87846743  0.50000000  0.99497657
   0.12153256  0.50000000  0.00502340
   0.00000000  0.50000000  0.50000000
   0.65614253  0.50000000  0.46150439
   0.34385750  0.50000000  0.53849558
   0.37846743 -0.00000000  0.99497657
   0.62153257  0.00000000  0.00502340
   0.00000000 -0.00000000  0.00000000
   0.25802368  0.00000000  0.24145373
   0.74197629 -0.00000000  0.75854625
   0.10851949  0.00000000  0.77115418
   0.89148052  0.00000000  0.22884579
   0.50000000  0.50000000  0.00000000
   0.75802371  0.50000000  0.24145373
   0.24197632  0.50000000  0.75854625
   0.60851948  0.50000000  0.77115418
   0.39148052  0.50000000  0.22884579
Direct configuration=     8
   0.50000000 -0.00000000  0.50000000
   0.15616462 -0.00000000  0.46149664
   0.84383537 -0.00000000  0.53850333
   0.87846692  0.50000000  0.99497146
   0.12153307  0.50000000  0.00502852
   0.00000000  0.50000000  0.50000000
   0.65616463  0.50000000  0.46149664
   0.34383540  0.50000000  0.53850333
   0.37846692 -0.00000000  0.99497146
   0.62153308  0.00000000  0.00502852
   0.00000000 -0.00000000  0.00000000
   0.25801484  0.00000000  0.24140490
   0.74198513 -0.00000000  0.75859508
   0.10850299 -0.00000000  0.77115659
   0.89149702  0.00000000  0.22884338
   0.50000000  0.50000000  0.00000000
   0.75801487  0.50000000  0.24140490
   0.24198516  0.50000000  0.75859508
   0.60850298  0.50000000  0.77115659
   0.39149702  0.50000000  0.22884338
Direct configuration=     9
   0.50000000 -0.00000000  0.50000000
   0.15617822 -0.00000000  0.46150847
   0.84382176 -0.00000000  0.53849150
   0.87846406  0.50000000  0.99497942
   0.12153593  0.50000000  0.00502056
   0.00000000  0.50000000  0.50000000
   0.65617824  0.50000000  0.46150847
   0.34382179  0.50000000  0.53849150
   0.37846406 -0.00000000  0.99497942
   0.62153594  0.00000000  0.00502056
   0.00000000 -0.00000000  0.00000000
   0.25802430  0.00000000  0.24139951
   0.74197567  0.00000000  0.75860048
   0.10847987 -0.00000000  0.77112065
   0.89152015  0.00000000  0.22887932
   0.50000000  0.50000000  0.00000000
   0.75802433  0.50000000  0.24139951
   0.24197570  0.50000000  0.75860048
   0.60847985  0.50000000  0.77112065
   0.39152015  0.50000000  0.22887932
Direct configuration=    10
   0.50000000 -0.00000000  0.50000000
   0.15620427 -0.00000000  0.46153113
   0.84379572 -0.00000000  0.53846884
   0.87845858  0.50000000  0.99499466
   0.12154141  0.50000000  0.00500532
   0.00000000  0.50000000  0.50000000
   0.65620428  0.50000000  0.46153113
   0.34379575  0.50000000  0.53846884
   0.37845858 -0.00000000  0.99499466
   0.62154142  0.00000000  0.00500532
   0.00000000 -0.00000000  0.00000000
   0.25804240  0.00000000  0.24138917
   0.74195757  0.00000000  0.75861082
   0.10843559 -0.00000000  0.77105181
   0.89156443  0.00000000  0.22894816
   0.50000000  0.50000000  0.00000000
   0.75804243  0.50000000  0.24138917
   0.24195760  0.50000000  0.75861082
   0.60843557  0.50000000  0.77105181
   0.39156443  0.50000000  0.22894816
Direct configuration=    11
   0.50000000 -0.00000000  0.50000000
   0.15621037 -0.00000000  0.46153893
   0.84378962 -0.00000000  0.53846104
   0.87845453  0.50000000  0.99499869
   0.12154547  0.50000000  0.00500128
   0.00000000  0.50000000  0.50000000
   0.65621038  0.50000000  0.46153893
   0.34378965  0.50000000  0.53846104
   0.37845453 -0.00000000  0.99499869
   0.62154547  0.00000000  0.00500128
   0.00000000 -0.00000000  0.00000000
   0.25802785  0.00000000  0.24137128
   0.74197212  0.00000000  0.75862870
   0.10841960 -0.00000000  0.77102424
   0.89158042 -0.00000000  0.22897573
   0.50000000  0.50000000  0.00000000
   0.75802788  0.50000000  0.24137128
   0.24197215  0.50000000  0.75862870
   0.60841958  0.50000000  0.77102424
   0.39158042  0.50000000  0.22897573
