       N       E                     dE             d eps       ncg     rms          rms(c)
DAV:   1     0.882835878378E+03    0.88284E+03   -0.83647E+04  6176   0.175E+03
DAV:   2    -0.195483576645E+03   -0.10783E+04   -0.10531E+04  7576   0.350E+02
DAV:   3    -0.250516103208E+03   -0.55033E+02   -0.54824E+02  7272   0.855E+01
DAV:   4    -0.251154868731E+03   -0.63877E+00   -0.63707E+00  7264   0.101E+01
DAV:   5    -0.251165220722E+03   -0.10352E-01   -0.10342E-01  7168   0.125E+00    0.297E+01
RMM:   6    -0.226611381111E+03    0.24554E+02   -0.11233E+02  6160   0.316E+01    0.799E+00
RMM:   7    -0.226535087053E+03    0.76294E-01   -0.23493E+00  6160   0.396E+00    0.544E+00
RMM:   8    -0.226568622474E+03   -0.33535E-01   -0.61683E-01  6160   0.391E+00    0.110E+00
RMM:   9    -0.226545925755E+03    0.22697E-01   -0.23967E-01  6160   0.147E+00    0.291E-01
RMM:  10    -0.226546151465E+03   -0.22571E-03   -0.49977E-03  6166   0.244E-01    0.265E-01
RMM:  11    -0.226544582390E+03    0.15691E-02   -0.93974E-03  6160   0.301E-01    0.279E-02
RMM:  12    -0.226544573435E+03    0.89543E-05   -0.66782E-05  6160   0.313E-02    0.105E-02
RMM:  13    -0.226544572221E+03    0.12144E-05   -0.97388E-06  5673   0.106E-02    0.117E-03
RMM:  14    -0.226544572416E+03   -0.19507E-06   -0.50370E-07  3640   0.250E-03
   1 F= -.22654457E+03 E0= -.22654457E+03  d E =-.226545E+03
       N       E                     dE             d eps       ncg     rms          rms(c)
DAV:   1    -0.226544572501E+03   -0.28041E-06   -0.14112E-05  5712   0.156E-02    0.387E-04
RMM:   2    -0.226544572499E+03    0.19052E-08   -0.33402E-07  3633   0.220E-03    0.795E-04
RMM:   3    -0.226544572507E+03   -0.71132E-08   -0.30553E-09  1248   0.654E-04    0.534E-04
RMM:   4    -0.226544572582E+03   -0.75605E-07   -0.39283E-07  3538   0.205E-03
   2 F= -.22654457E+03 E0= -.22654457E+03  d E =-.166154E-06
       N       E                     dE             d eps       ncg     rms          rms(c)
DAV:   1    -0.226544572555E+03   -0.48055E-07   -0.47268E-05  6464   0.286E-02    0.106E-03
RMM:   2    -0.226544572738E+03   -0.18334E-06   -0.76136E-07  3512   0.355E-03    0.217E-03
RMM:   3    -0.226544572578E+03    0.15988E-06   -0.28962E-07  3428   0.188E-03    0.613E-04
RMM:   4    -0.226544572560E+03    0.17914E-07   -0.13631E-07  2846   0.126E-03
   3 F= -.22654457E+03 E0= -.22654457E+03  d E =-.144149E-06
       N       E                     dE             d eps       ncg     rms          rms(c)
DAV:   1    -0.226544572602E+03   -0.23503E-07   -0.27928E-06  5272   0.703E-03    0.193E-04
RMM:   2    -0.226544572617E+03   -0.15513E-07   -0.85726E-08  2827   0.132E-03    0.346E-04
RMM:   3    -0.226544572615E+03    0.23639E-08    0.00000E+00   561   0.409E-04    0.311E-04
RMM:   4    -0.226544572610E+03    0.46092E-08    0.00000E+00   480   0.418E-04
   4 F= -.22654457E+03 E0= -.22654457E+03  d E =-.194106E-06
       N       E                     dE             d eps       ncg     rms          rms(c)
DAV:   1    -0.226544572604E+03    0.10469E-07   -0.13541E-07  3632   0.153E-03    0.605E-05
RMM:   2    -0.226544572603E+03    0.10027E-08    0.00000E+00   474   0.348E-04    0.675E-05
RMM:   3    -0.226544572599E+03    0.37641E-08    0.00000E+00   325   0.349E-04    0.243E-05
RMM:   4    -0.226544572599E+03    0.70122E-09    0.00000E+00   298   0.368E-04
   5 F= -.22654457E+03 E0= -.22654457E+03  d E =-.182778E-06
