 vasp.5.3.5 31Mar14 (build Nov 12 2015 11:19:23) complex                         
 executed on           CrayXC_GCC date 2016.06.28  16:56:53
 running on   96 total cores
 distrk:  each k-point on   96 cores,    1 groups
 distr:  one band on NCORES_PER_BAND=  24 cores,    4 groups


--------------------------------------------------------------------------------------------------------


 INCAR:
 POTCAR:   PAW_GGA Al 05Jan2001                   
 POTCAR:   PAW_GGA O 05Jan2001                    

 ----------------------------------------------------------------------------- 
|                                                                             |
|           W    W    AA    RRRRR   N    N  II  N    N   GGGG   !!!           |
|           W    W   A  A   R    R  NN   N  II  NN   N  G    G  !!!           |
|           W    W  A    A  R    R  N N  N  II  N N  N  G       !!!           |
|           W WW W  AAAAAA  RRRRR   N  N N  II  N  N N  G  GGG   !            |
|           WW  WW  A    A  R   R   N   NN  II  N   NN  G    G                |
|           W    W  A    A  R    R  N    N  II  N    N   GGGG   !!!           |
|                                                                             |
|      For optimal performance we recommend to set                            |
|        NCORE= 4 - approx SQRT( number of cores)                             |
|      NCORE specifies how many cores store one orbital (NPAR=cpu/NCORE).     |
|      This setting can  greatly improve the performance of VASP for DFT.     |
|      The default, NPAR=number of cores might be grossly inefficient         |
|      on modern multi-core architectures or massively parallel machines.     |
|      Do your own testing !!!!                                               |
|      Unfortunately you need to use the default for GW and RPA calculations. |
|      (for HF NCORE is supported but not extensively tested yet)             |
|                                                                             |
 ----------------------------------------------------------------------------- 

 POTCAR:   PAW_GGA Al 05Jan2001                   
   VRHFIN =Al: s2p1                                                             
   LEXCH  = 91                                                                  
   EATOM  =    53.6910 eV,    3.9462 Ry                                         
                                                                                
   TITEL  = PAW_GGA Al 05Jan2001                                                
   LULTRA =        F    use ultrasoft PP ?                                      
   IUNSCR =        1    unscreen: 0-lin 1-nonlin 2-no                           
   RPACOR =    1.500    partial core radius                                     
   POMASS =   26.982; ZVAL   =    3.000    mass and valenz                      
   RCORE  =    1.900    outmost cutoff radius                                   
   RWIGS  =    2.650; RWIGS  =    1.402    wigner-seitz radius (au A)           
   ENMAX  =  240.437; ENMIN  =  180.327 eV                                      
   ICORE  =        2    local potential                                         
   LCOR   =        T    correct aug charges                                     
   LPAW   =        T    paw PP                                                  
   EAUG   =  291.052                                                            
   DEXC   =    -.017                                                            
   RMAX   =    2.974    core radius for proj-oper                               
   RAUG   =    1.300    factor for augmentation sphere                          
   RDEP   =    1.966    core radius for depl-charge                             
   QCUT   =   -4.204; QGAM   =    8.408    optimization parameters              
                                                                                
   Description                                                                  
     l     E      TYP  RCUT    TYP  RCUT                                        
     0   .000     23  1.900                                                     
     0   .000     23  1.900                                                     
     1   .000     23  1.900                                                     
     1  1.000     23  1.900                                                     
     2   .000      7  1.900                                                     
  local pseudopotential read in
  partial core-charges read in
  atomic valenz-charges read in
  non local Contribution for L=           0  read in
    real space projection operators read in
  non local Contribution for L=           0  read in
    real space projection operators read in
  non local Contribution for L=           1  read in
    real space projection operators read in
  non local Contribution for L=           1  read in
    real space projection operators read in
    PAW grid and wavefunctions read in

   number of l-projection  operators is LMAX  =           4
   number of lm-projection operators is LMMAX =           8

 POTCAR:   PAW_GGA O 05Jan2001                    
   VRHFIN =O: s2p4                                                              
   LEXCH  = 91                                                                  
   EATOM  =   433.0277 eV,   31.8266 Ry                                         
                                                                                
   TITEL  = PAW_GGA O 05Jan2001                                                 
   LULTRA =        F    use ultrasoft PP ?                                      
   IUNSCR =        0    unscreen: 0-lin 1-nonlin 2-no                           
   RPACOR =     .000    partial core radius                                     
   POMASS =   16.000; ZVAL   =    6.000    mass and valenz                      
   RCORE  =    1.520    outmost cutoff radius                                   
   RWIGS  =    1.550; RWIGS  =     .820    wigner-seitz radius (au A)           
   ENMAX  =  400.000; ENMIN  =  300.000 eV                                      
   ICORE  =        2    local potential                                         
   LCOR   =        T    correct aug charges                                     
   LPAW   =        T    paw PP                                                  
   EAUG   =  605.392                                                            
   DEXC   =     .000                                                            
   RMAX   =    2.264    core radius for proj-oper                               
   RAUG   =    1.300    factor for augmentation sphere                          
   RDEP   =    1.550    radius for radial grids                                 
   QCUT   =   -5.520; QGAM   =   11.040    optimization parameters              
                                                                                
   Description                                                                  
     l     E      TYP  RCUT    TYP  RCUT                                        
     0   .000     23  1.200                                                     
     0  -.700     23  1.200                                                     
     1   .000     23  1.520                                                     
     1   .600     23  1.520                                                     
     2   .000      7  1.500                                                     
  local pseudopotential read in
  atomic valenz-charges read in
  non local Contribution for L=           0  read in
    real space projection operators read in
  non local Contribution for L=           0  read in
    real space projection operators read in
  non local Contribution for L=           1  read in
    real space projection operators read in
  non local Contribution for L=           1  read in
    real space projection operators read in
    PAW grid and wavefunctions read in

   number of l-projection  operators is LMAX  =           4
   number of lm-projection operators is LMMAX =           8


 ----------------------------------------------------------------------------- 
|                                                                             |
|  ADVICE TO THIS USER RUNNING 'VASP/VAMP'   (HEAR YOUR MASTER'S VOICE ...):  |
|                                                                             |
|      You have a (more or less) 'large supercell' and for larger cells       |
|      it might be more efficient to use real space projection operators      |
|      So try LREAL= Auto  in the INCAR   file.                               |
|      Mind: If you want to do a very accurate calculations keep the          |
|      reciprocal projection scheme          (i.e. LREAL=.FALSE.)             |
|                                                                             |
 ----------------------------------------------------------------------------- 

 PAW_GGA Al 05Jan2001                   :
 energy of atom  1       EATOM=  -53.6910
 kinetic energy error for atom=    0.0002 (will be added to EATOM!!)
 PAW_GGA O 05Jan2001                    :
 energy of atom  2       EATOM= -433.0277
 kinetic energy error for atom=    0.0167 (will be added to EATOM!!)


 POSCAR: Al2O3_R-3cH                             
  positions in direct lattice
  velocities in cartesian coordinates
  No initial velocities read in
 exchange correlation table for  LEXCH =        7
   RHO(1)=    0.500       N(1)  =     2000
   RHO(2)=  100.500       N(2)  =     4000



--------------------------------------------------------------------------------------------------------


 ion  position               nearest neighbor table
   1  0.000  0.000  0.352-  26 1.87  28 1.87  30 1.87  13 1.99  17 1.99  15 1.99   3 2.68  10 2.82
                            10 2.82  10 2.82   7 3.25   7 3.25   7 3.25
   2  0.000  0.000  0.648-  23 1.87  19 1.87  21 1.87  14 1.99  18 1.99  16 1.99   4 2.68   5 2.82
                             5 2.82   5 2.82  12 3.25  12 3.25  12 3.25
   3  0.000  0.000  0.148-  22 1.87  20 1.87  24 1.87  13 1.99  17 1.99  15 1.99   1 2.68   8 2.82
                             8 2.82   8 2.82   9 3.25   9 3.25   9 3.25
   4  0.000  0.000  0.852-  29 1.87  27 1.87  25 1.87  14 1.99  18 1.99  16 1.99   2 2.68  11 2.82
                            11 2.82  11 2.82   6 3.25   6 3.25   6 3.25
   5  0.667  0.333  0.686-  16 1.87  14 1.87  18 1.87  21 1.99  19 1.99  23 1.99   7 2.68   2 2.82
                             2 2.82   2 2.82  11 3.25  11 3.25  11 3.25
   6  0.667  0.333  0.981-  29 1.87  27 1.87  25 1.87  24 1.99  22 1.99  20 1.99   8 2.68   9 2.82
                             9 2.82   9 2.82   4 3.25   4 3.25   4 3.25
   7  0.667  0.333  0.481-  30 1.87  26 1.87  28 1.87  21 1.99  19 1.99  23 1.99   5 2.68  12 2.82
                            12 2.82  12 2.82   1 3.25   1 3.25   1 3.25
   8  0.667  0.333  0.186-  15 1.87  17 1.87  13 1.87  24 1.99  22 1.99  20 1.99   6 2.68   3 2.82
                             3 2.82   3 2.82  10 3.25  10 3.25  10 3.25
   9  0.333  0.667  0.019-  24 1.87  22 1.87  20 1.87  25 1.99  27 1.99  29 1.99  11 2.68   6 2.82
                             6 2.82   6 2.82   3 3.25   3 3.25   3 3.25
  10  0.333  0.667  0.314-  13 1.87  17 1.87  15 1.87  30 1.99  26 1.99  28 1.99  12 2.68   1 2.82
                             1 2.82   1 2.82   8 3.25   8 3.25   8 3.25
  11  0.333  0.667  0.814-  14 1.87  16 1.87  18 1.87  25 1.99  27 1.99  29 1.99   9 2.68   4 2.82
                             4 2.82   4 2.82   5 3.25   5 3.25   5 3.25
  12  0.333  0.667  0.519-  23 1.87  19 1.87  21 1.87  30 1.99  26 1.99  28 1.99  10 2.68   7 2.82
                             7 2.82   7 2.82   2 3.25   2 3.25   2 3.25
  13  0.306  0.000  0.250-  10 1.87   8 1.87   1 1.99   3 1.99
  14  0.694  0.000  0.750-  11 1.87   5 1.87   2 1.99   4 1.99
  15  0.000  0.306  0.250-  10 1.87   8 1.87   1 1.99   3 1.99
  16  0.000  0.694  0.750-   5 1.87  11 1.87   2 1.99   4 1.99
  17  0.694  0.694  0.250-  10 1.87   8 1.87   1 1.99   3 1.99
  18  0.306  0.306  0.750-   5 1.87  11 1.87   2 1.99   4 1.99
  19  0.973  0.333  0.583-  12 1.87   2 1.87   7 1.99   5 1.99
  20  0.361  0.333  0.083-   3 1.87   9 1.87   8 1.99   6 1.99
  21  0.667  0.639  0.583-   2 1.87  12 1.87   7 1.99   5 1.99
  22  0.667  0.027  0.083-   3 1.87   9 1.87   8 1.99   6 1.99
  23  0.361  0.027  0.583-  12 1.87   2 1.87   7 1.99   5 1.99
  24  0.973  0.639  0.083-   9 1.87   3 1.87   8 1.99   6 1.99
  25  0.639  0.667  0.917-   4 1.87   6 1.87   9 1.99  11 1.99
  26  0.027  0.667  0.417-   1 1.87   7 1.87  12 1.99  10 1.99
  27  0.333  0.973  0.917-   6 1.87   4 1.87   9 1.99  11 1.99
  28  0.333  0.361  0.417-   1 1.87   7 1.87  12 1.99  10 1.99
  29  0.027  0.361  0.917-   6 1.87   4 1.87   9 1.99  11 1.99
  30  0.639  0.973  0.417-   7 1.87   1 1.87  12 1.99  10 1.99

  LATTYP: Found a hexagonal cell.
 ALAT       =     4.8027765869
 C/A-ratio  =     2.7281357468
  
  Lattice vectors:
  
 A1 = (   4.8027765869,  -0.0000000000,  -0.0000000000)
 A2 = (  -2.4013882935,   4.1593265330,  -0.0000000000)
 A3 = (  -0.0000000000,   0.0000000000,  13.1026264906)


Analysis of symmetry for initial positions (statically):
=====================================================================
 Subroutine PRICEL returns following result:
 
  LATTYP: Found a trigonal (rhomboedric) cell.
 ALAT       =     5.1734233393
 COS(alpha) =     0.5690780007
  
  Lattice vectors:
  
 A1 = (  -2.4013881446,  -1.3864420973,  -4.3675419102)
 A2 = (  -0.0000000745,   2.7728843151,  -4.3675422902)
 A3 = (   2.4013882190,  -1.3864422179,  -4.3675422902)
 
   3 primitive cells build up your supercell.
 

 Routine SETGRP: Setting up the symmetry group for a 
 hexagonal supercell.


 Subroutine GETGRP returns: Found 12 space group operations
 (whereof  6 operations were pure point group operations)
 out of a pool of 24 trial point group operations.


The static configuration has the point symmetry S_6 .
 The point group associated with its full space group is D_3d.


Analysis of symmetry for dynamics (positions and initial velocities):
=====================================================================
 Subroutine PRICEL returns following result:
 
  LATTYP: Found a trigonal (rhomboedric) cell.
 ALAT       =     5.1734233393
 COS(alpha) =     0.5690780007
  
  Lattice vectors:
  
 A1 = (  -2.4013881446,  -1.3864420973,  -4.3675419102)
 A2 = (  -0.0000000745,   2.7728843151,  -4.3675422902)
 A3 = (   2.4013882190,  -1.3864422179,  -4.3675422902)
 
   3 primitive cells build up your supercell.
 

 Routine SETGRP: Setting up the symmetry group for a 
 hexagonal supercell.


 Subroutine GETGRP returns: Found 12 space group operations
 (whereof  6 operations were pure point group operations)
 out of a pool of 24 trial point group operations.


The dynamic configuration has the point symmetry S_6 .
 The point group associated with its full space group is D_3d.


 KPOINTS: Automatic                               

Automatic generation of k-mesh.
Space group operators:
 irot       det(A)        alpha          n_x          n_y          n_z        tau_x        tau_y        tau_z
    1     1.000000     0.000000     1.000000     0.000000     0.000000     0.000000     0.000000    -0.000000
    2    -1.000000     0.000000     1.000000     0.000000     0.000000     0.000000     0.000000    -0.000000
    3     1.000000   120.000000     0.000000     0.000000    -1.000000     0.000000     0.000000    -0.000000
    4    -1.000000   120.000000     0.000000     0.000000    -1.000000     0.000000     0.000000    -0.000000
    5     1.000000   120.000000     0.000000     0.000000     1.000000     0.000000     0.000000    -0.000000
    6    -1.000000   120.000000     0.000000     0.000000     1.000000     0.000000     0.000000    -0.000000
    7     1.000000   179.999999     1.000000     0.000000     0.000000     0.000000     0.000000    -0.500000
    8    -1.000000   179.999999     1.000000     0.000000     0.000000     0.000000     0.000000    -0.500000
    9     1.000000   180.000000     0.500000    -0.866025     0.000000     0.000000     0.000000    -0.500000
   10    -1.000000   180.000000     0.500000    -0.866025     0.000000     0.000000     0.000000    -0.500000
   11     1.000000   180.000000    -0.500000    -0.866025     0.000000     0.000000     0.000000    -0.500000
   12    -1.000000   180.000000    -0.500000    -0.866025     0.000000     0.000000     0.000000    -0.500000
 
 Subroutine IBZKPT returns following result:
 ===========================================
 
 Found     35 irreducible k-points:
 
 Following reciprocal coordinates:
            Coordinates               Weight
  0.000000  0.000000  0.000000      1.000000
  0.125000  0.000000  0.000000      6.000000
  0.250000  0.000000  0.000000      6.000000
  0.375000  0.000000  0.000000      6.000000
  0.500000  0.000000  0.000000      3.000000
  0.125000  0.125000  0.000000      6.000000
  0.250000  0.125000  0.000000     12.000000
  0.375000  0.125000  0.000000     12.000000
  0.250000  0.250000  0.000000      6.000000
  0.375000  0.250000  0.000000      6.000000
  0.000000  0.000000  0.250000      2.000000
  0.125000  0.000000  0.250000      6.000000
  0.250000  0.000000  0.250000      6.000000
  0.375000  0.000000  0.250000      6.000000
  0.500000  0.000000  0.250000      6.000000
 -0.375000  0.000000  0.250000      6.000000
 -0.250000  0.000000  0.250000      6.000000
 -0.125000  0.000000  0.250000      6.000000
  0.125000  0.125000  0.250000     12.000000
  0.250000  0.125000  0.250000     12.000000
  0.375000  0.125000  0.250000     12.000000
  0.500000  0.125000  0.250000     12.000000
 -0.375000  0.125000  0.250000     12.000000
  0.250000  0.250000  0.250000     12.000000
  0.375000  0.250000  0.250000     12.000000
  0.000000  0.000000  0.500000      1.000000
  0.125000  0.000000  0.500000      6.000000
  0.250000  0.000000  0.500000      6.000000
  0.375000  0.000000  0.500000      6.000000
  0.500000  0.000000  0.500000      3.000000
  0.125000  0.125000  0.500000      6.000000
  0.250000  0.125000  0.500000     12.000000
  0.375000  0.125000  0.500000     12.000000
  0.250000  0.250000  0.500000      6.000000
  0.375000  0.250000  0.500000      6.000000
 
 Following cartesian coordinates:
            Coordinates               Weight
  0.000000  0.000000  0.000000      1.000000
  0.026027  0.015026  0.000000      6.000000
  0.052053  0.030053  0.000000      6.000000
  0.078080  0.045079  0.000000      6.000000
  0.104106  0.060106  0.000000      3.000000
  0.026027  0.045079  0.000000      6.000000
  0.052053  0.060106  0.000000     12.000000
  0.078080  0.075132  0.000000     12.000000
  0.052053  0.090159  0.000000      6.000000
  0.078080  0.105185  0.000000      6.000000
  0.000000  0.000000  0.019080      2.000000
  0.026027  0.015026  0.019080      6.000000
  0.052053  0.030053  0.019080      6.000000
  0.078080  0.045079  0.019080      6.000000
  0.104106  0.060106  0.019080      6.000000
 -0.078080 -0.045079  0.019080      6.000000
 -0.052053 -0.030053  0.019080      6.000000
 -0.026027 -0.015026  0.019080      6.000000
  0.026027  0.045079  0.019080     12.000000
  0.052053  0.060106  0.019080     12.000000
  0.078080  0.075132  0.019080     12.000000
  0.104106  0.090159  0.019080     12.000000
 -0.078080 -0.015026  0.019080     12.000000
  0.052053  0.090159  0.019080     12.000000
  0.078080  0.105185  0.019080     12.000000
  0.000000  0.000000  0.038160      1.000000
  0.026027  0.015026  0.038160      6.000000
  0.052053  0.030053  0.038160      6.000000
  0.078080  0.045079  0.038160      6.000000
  0.104106  0.060106  0.038160      3.000000
  0.026027  0.045079  0.038160      6.000000
  0.052053  0.060106  0.038160     12.000000
  0.078080  0.075132  0.038160     12.000000
  0.052053  0.090159  0.038160      6.000000
  0.078080  0.105185  0.038160      6.000000
 


--------------------------------------------------------------------------------------------------------




 Dimension of arrays:
   k-points           NKPTS =     35   k-points in BZ     NKDIM =     35   number of bands    NBANDS=     88
   number of dos      NEDOS =    301   number of ions     NIONS =     30
   non local maximal  LDIM  =      4   non local SUM 2l+1 LMDIM =      8
   total plane-waves  NPLWV =  72000
   max r-space proj   IRMAX =      1   max aug-charges    IRDMAX=  10904
   dimension x,y,z NGX =    30 NGY =   30 NGZ =   80
   dimension x,y,z NGXF=    60 NGYF=   60 NGZF=  160
   support grid    NGXF=    60 NGYF=   60 NGZF=  160
   ions per type =              12  18
 NGX,Y,Z   is equivalent  to a cutoff of  10.38, 10.38, 10.15 a.u.
 NGXF,Y,Z  is equivalent  to a cutoff of  20.77, 20.77, 20.30 a.u.


 I would recommend the setting:
   dimension x,y,z NGX =    29 NGY =   29 NGZ =   79
 SYSTEM =  AlO                                     
 POSCAR =  Al2O3_R-3cH                             

 Startparameter for this run:
   NWRITE =      2    write-flag & timer
   PREC   = n         normal or accurate (medium, high low for compatibility)
   ISTART =      0    job   : 0-new  1-cont  2-samecut
   ICHARG =      2    charge: 1-file 2-atom 10-const
   ISPIN  =      1    spin polarized calculation?
   LNONCOLLINEAR =      F non collinear calculations
   LSORBIT =      F    spin-orbit coupling
   INIWAV =      1    electr: 0-lowe 1-rand  2-diag
   LASPH  =      F    aspherical Exc in radial PAW
   METAGGA=      F    non-selfconsistent MetaGGA calc.

 Electronic Relaxation 1
   ENCUT  =  600.0 eV  44.10 Ry    6.64 a.u.   9.59  9.59 26.17*2*pi/ulx,y,z
   ENINI  =  600.0     initial cutoff
   ENAUG  =  605.4 eV  augmentation charge cutoff
   NELM   =     40;   NELMIN=  4; NELMDL= -5     # of ELM steps 
   EDIFF  = 0.1E-05   stopping-criterion for ELM
   LREAL  =      F    real-space projection
   NLSPLINE    = F    spline interpolate recip. space projectors
   LCOMPAT=      F    compatible to vasp.4.4
   GGA_COMPAT  = T    GGA compatible to vasp.4.4-vasp.4.6
   LMAXPAW     = -100 max onsite density
   LMAXMIX     =    2 max onsite mixed and CHGCAR
   VOSKOWN=      0    Vosko Wilk Nusair interpolation
   ROPT   =    0.00000   0.00000
 Ionic relaxation
   EDIFFG = -.1E-03   stopping-criterion for IOM
   NSW    =    100    number of steps for IOM
   NBLOCK =      1;   KBLOCK =    100    inner block; outer block 
   IBRION =      2    ionic relax: 0-MD 1-quasi-New 2-CG
   NFREE  =      1    steps in history (QN), initial steepest desc. (CG)
   ISIF   =      2    stress and relaxation
   IWAVPR =     11    prediction:  0-non 1-charg 2-wave 3-comb
   ISYM   =      2    0-nonsym 1-usesym 2-fastsym
   LCORR  =      T    Harris-Foulkes like correction to forces

   POTIM  = 0.3000    time-step for ionic-motion
   TEIN   =    0.0    initial temperature
   TEBEG  =    0.0;   TEEND  =   0.0 temperature during run
   SMASS  =  -3.00    Nose mass-parameter (am)
   estimated Nose-frequenzy (Omega)   =  0.10E-29 period in steps =****** mass=  -0.527E-27a.u.
   SCALEE = 1.0000    scale energy and forces
   NPACO  =    256;   APACO  = 16.0  distance and # of slots for P.C.
   PSTRESS=    0.0 pullay stress

  Mass of Ions in am
   POMASS =  26.98 16.00
  Ionic Valenz
   ZVAL   =   3.00  6.00
  Atomic Wigner-Seitz radii
   RWIGS  =  -1.00 -1.00
  virtual crystal weights 
   VCA    =   1.00  1.00
   NELECT =     144.0000    total number of electrons
   NUPDOWN=      -1.0000    fix difference up-down

 DOS related values:
   EMIN   =  10.00;   EMAX   =-10.00  energy-range for DOS
   EFERMI =   0.00
   ISMEAR =    -1;   SIGMA  =   0.03  broadening in eV -4-tet -1-fermi 0-gaus

 Electronic relaxation 2 (details)
   IALGO  =     68    algorithm
   LDIAG  =      T    sub-space diagonalisation (order eigenvalues)
   LSUBROT=      F    optimize rotation matrix (better conditioning)
   TURBO    =      0    0=normal 1=particle mesh
   IRESTART =      0    0=no restart 2=restart with 2 vectors
   NREBOOT  =      0    no. of reboots
   NMIN     =      0    reboot dimension
   EREF     =   0.00    reference energy to select bands
   IMIX   =      4    mixing-type and parameters
     AMIX     =   0.40;   BMIX     =  1.00
     AMIX_MAG =   1.60;   BMIX_MAG =  1.00
     AMIN     =   0.10
     WC   =   100.;   INIMIX=   1;  MIXPRE=   1;  MAXMIX=  40

 Intra band minimization:
   WEIMIN = 0.0010     energy-eigenvalue tresh-hold
   EBREAK =  0.28E-08  absolut break condition
   DEPER  =   0.30     relativ break condition  

   TIME   =   0.40     timestep for ELM

  volume/ion in A,a.u.               =       8.72        58.88
  Fermi-wavevector in a.u.,A,eV,Ry     =   1.341439  2.534953 24.483137  1.799460
  Thomas-Fermi vector in A             =   2.469673

 Write flags
   LWAVE  =      F    write WAVECAR
   LCHARG =      F    write CHGCAR
   LVTOT  =      F    write LOCPOT, total local potential
   LVHAR  =      F    write LOCPOT, Hartree potential only
   LELF   =      F    write electronic localiz. function (ELF)
   LORBIT =      0    0 simple, 1 ext, 2 COOP (PROOUT)


 Dipole corrections
   LMONO  =      F    monopole corrections only (constant potential shift)
   LDIPOL =      F    correct potential (dipole corrections)
   IDIPOL =      0    1-x, 2-y, 3-z, 4-all directions 
   EPSILON=  1.0000000 bulk dielectric constant

 Exchange correlation treatment:
   GGA     =    91    GGA type
   LEXCH   =     7    internal setting for exchange type
   VOSKOWN=      0    Vosko Wilk Nusair interpolation
   LHFCALC =     F    Hartree Fock is set to
   LHFONE  =     F    Hartree Fock one center treatment
   AEXX    =    0.0000 exact exchange contribution

 Linear response parameters
   LEPSILON=     F    determine dielectric tensor
   LRPA    =     F    only Hartree local field effects (RPA)
   LNABLA  =     F    use nabla operator in PAW spheres
   LVEL    =     F    velocity operator in full k-point grid
   LINTERFAST=   F  fast interpolation
   KINTER  =     0    interpolate to denser k-point grid
   CSHIFT  =0.1000    complex shift for real part using Kramers Kronig
   OMEGAMAX=  -1.0    maximum frequency
   DEG_THRESHOLD= 0.2000000E-02 threshold for treating states as degnerate
   RTIME   =    0.100 relaxation time in fs

 Orbital magnetization related:
   ORBITALMAG=     F  switch on orbital magnetization
   LCHIMAG   =     F  perturbation theory with respect to B field
   DQ        =  0.001000  dq finite difference perturbation B field



--------------------------------------------------------------------------------------------------------


 conjugate gradient relaxation of ions
 charge density and potential will be updated during run
 non-spin polarized calculation
 RMM-DIIS sequential band-by-band and
  variant of blocked Davidson during initial phase
 perform sub-space diagonalisation
    before iterative eigenvector-optimisation
 modified Broyden-mixing scheme, WC =      100.0
 initial mixing is a Kerker type mixing with AMIX =  0.4000 and BMIX =      1.0000
 Hartree-type preconditioning will be used
 using additional bands           16
 reciprocal scheme for non local part
 use partial core corrections
 calculate Harris-corrections to forces   (improved forces if not selfconsistent)
 use gradient corrections 
 use of overlap-Matrix (Vanderbilt PP)
 Fermi-smearing in eV        SIGMA  =   0.03


--------------------------------------------------------------------------------------------------------


  energy-cutoff  :      600.00
  volume of cell :      261.74
      direct lattice vectors                 reciprocal lattice vectors
     4.802776587 -0.000000000 -0.000000000     0.208212891  0.120211769  0.000000000
    -2.401388294  4.159326533 -0.000000000     0.000000000  0.240423538  0.000000000
    -0.000000000  0.000000000 13.102626491     0.000000000  0.000000000  0.076320576

  length of vectors
     4.802776587  4.802776587 13.102626491     0.240423538  0.240423538  0.076320576



 k-points in units of 2pi/SCALE and weight: Automatic                               
   0.00000000  0.00000000  0.00000000       0.004
   0.02602661  0.01502647  0.00000000       0.023
   0.05205322  0.03005294  0.00000000       0.023
   0.07807983  0.04507941  0.00000000       0.023
   0.10410645  0.06010588  0.00000000       0.012
   0.02602661  0.04507941  0.00000000       0.023
   0.05205322  0.06010588  0.00000000       0.047
   0.07807983  0.07513236  0.00000000       0.047
   0.05205322  0.09015883  0.00000000       0.023
   0.07807983  0.10518530  0.00000000       0.023
   0.00000000  0.00000000  0.01908014       0.008
   0.02602661  0.01502647  0.01908014       0.023
   0.05205322  0.03005294  0.01908014       0.023
   0.07807983  0.04507941  0.01908014       0.023
   0.10410645  0.06010588  0.01908014       0.023
  -0.07807983 -0.04507941  0.01908014       0.023
  -0.05205322 -0.03005294  0.01908014       0.023
  -0.02602661 -0.01502647  0.01908014       0.023
   0.02602661  0.04507941  0.01908014       0.047
   0.05205322  0.06010588  0.01908014       0.047
   0.07807983  0.07513236  0.01908014       0.047
   0.10410645  0.09015883  0.01908014       0.047
  -0.07807983 -0.01502647  0.01908014       0.047
   0.05205322  0.09015883  0.01908014       0.047
   0.07807983  0.10518530  0.01908014       0.047
   0.00000000  0.00000000  0.03816029       0.004
   0.02602661  0.01502647  0.03816029       0.023
   0.05205322  0.03005294  0.03816029       0.023
   0.07807983  0.04507941  0.03816029       0.023
   0.10410645  0.06010588  0.03816029       0.012
   0.02602661  0.04507941  0.03816029       0.023
   0.05205322  0.06010588  0.03816029       0.047
   0.07807983  0.07513236  0.03816029       0.047
   0.05205322  0.09015883  0.03816029       0.023
   0.07807983  0.10518530  0.03816029       0.023

 k-points in reciprocal lattice and weights: Automatic                               
   0.00000000  0.00000000  0.00000000       0.004
   0.12500000  0.00000000  0.00000000       0.023
   0.25000000  0.00000000  0.00000000       0.023
   0.37500000  0.00000000  0.00000000       0.023
   0.50000000  0.00000000  0.00000000       0.012
   0.12500000  0.12500000  0.00000000       0.023
   0.25000000  0.12500000  0.00000000       0.047
   0.37500000  0.12500000  0.00000000       0.047
   0.25000000  0.25000000  0.00000000       0.023
   0.37500000  0.25000000  0.00000000       0.023
   0.00000000  0.00000000  0.25000000       0.008
   0.12500000  0.00000000  0.25000000       0.023
   0.25000000  0.00000000  0.25000000       0.023
   0.37500000  0.00000000  0.25000000       0.023
   0.50000000  0.00000000  0.25000000       0.023
  -0.37500000  0.00000000  0.25000000       0.023
  -0.25000000  0.00000000  0.25000000       0.023
  -0.12500000  0.00000000  0.25000000       0.023
   0.12500000  0.12500000  0.25000000       0.047
   0.25000000  0.12500000  0.25000000       0.047
   0.37500000  0.12500000  0.25000000       0.047
   0.50000000  0.12500000  0.25000000       0.047
  -0.37500000  0.12500000  0.25000000       0.047
   0.25000000  0.25000000  0.25000000       0.047
   0.37500000  0.25000000  0.25000000       0.047
   0.00000000  0.00000000  0.50000000       0.004
   0.12500000  0.00000000  0.50000000       0.023
   0.25000000  0.00000000  0.50000000       0.023
   0.37500000  0.00000000  0.50000000       0.023
   0.50000000  0.00000000  0.50000000       0.012
   0.12500000  0.12500000  0.50000000       0.023
   0.25000000  0.12500000  0.50000000       0.047
   0.37500000  0.12500000  0.50000000       0.047
   0.25000000  0.25000000  0.50000000       0.023
   0.37500000  0.25000000  0.50000000       0.023

 position of ions in fractional coordinates (direct lattice) 
   0.00000000  0.00000000  0.35221672
   0.00000000  0.00000000  0.64778325
   0.00000000  0.00000000  0.14778328
   0.00000000  0.00000000  0.85221675
   0.66666669  0.33333334  0.68555007
   0.66666669  0.33333334  0.98111662
   0.66666669  0.33333334  0.48111662
   0.66666669  0.33333334  0.18555001
   0.33333334  0.66666669  0.01888338
   0.33333334  0.66666669  0.31444993
   0.33333334  0.66666669  0.81444993
   0.33333334  0.66666669  0.51888338
   0.30611761  0.00000000  0.25000000
   0.69388239  0.00000000  0.75000000
   0.00000000  0.30611761  0.25000000
   0.00000000  0.69388239  0.75000000
   0.69388239  0.69388239  0.25000000
   0.30611761  0.30611761  0.75000000
   0.97278430  0.33333334  0.58333331
   0.36054904  0.33333334  0.08333334
   0.66666669  0.63945093  0.58333331
   0.66666669  0.02721572  0.08333334
   0.36054904  0.02721572  0.58333331
   0.97278430  0.63945093  0.08333334
   0.63945093  0.66666669  0.91666669
   0.02721572  0.66666669  0.41666666
   0.33333334  0.97278430  0.91666669
   0.33333334  0.36054904  0.41666666
   0.02721572  0.36054904  0.91666669
   0.63945093  0.97278430  0.41666666

 position of ions in cartesian coordinates  (Angst):
   0.00000000  0.00000000  4.61496417
   0.00000000  0.00000000  8.48766193
   0.00000000  0.00000000  1.93634907
   0.00000000  0.00000000 11.16627781
   2.40138837  1.38644222  8.98250646
   2.40138837  1.38644222 12.85520461
   2.40138837  1.38644222  6.30389136
   2.40138837  1.38644222  2.43119244
  -0.00000000  2.77288444  0.24742188
  -0.00000000  2.77288444  4.12012003
  -0.00000000  2.77288444 10.67143327
  -0.00000000  2.77288444  6.79873513
   1.47021450 -0.00000000  3.27565662
   3.33256209 -0.00000000  9.82696987
  -0.73510725  1.27324311  3.27565662
  -1.66628104  2.88608343  9.82696987
   1.66628104  2.88608343  3.27565662
   0.73510725  1.27324311  9.82696987
   3.87160287  1.38644222  7.64319852
   0.93117372  1.38644222  1.09188558
   1.66628119  2.65968520  7.64319852
   3.13649564  0.11319907  1.09188558
   1.66628099  0.11319907  7.64319852
   3.13649569  2.65968520  1.09188558
   1.47021436  2.77288444 12.01074122
  -1.47021455  2.77288444  5.45942758
  -0.73510725  4.04612755 12.01074122
   0.73510732  1.49964121  5.45942758
  -0.73510722  1.49964121 12.01074122
   0.73510711  4.04612755  5.45942758



--------------------------------------------------------------------------------------------------------


 k-point  1 :   0.0000 0.0000 0.0000  plane waves:    8765
 k-point  2 :   0.1250 0.0000 0.0000  plane waves:    8739
 k-point  3 :   0.2500 0.0000 0.0000  plane waves:    8749
 k-point  4 :   0.3750 0.0000 0.0000  plane waves:    8718
 k-point  5 :   0.5000 0.0000 0.0000  plane waves:    8718
 k-point  6 :   0.1250 0.1250 0.0000  plane waves:    8741
 k-point  7 :   0.2500 0.1250 0.0000  plane waves:    8738
 k-point  8 :   0.3750 0.1250 0.0000  plane waves:    8734
 k-point  9 :   0.2500 0.2500 0.0000  plane waves:    8752
 k-point 10 :   0.3750 0.2500 0.0000  plane waves:    8696
 k-point 11 :   0.0000 0.0000 0.2500  plane waves:    8806
 k-point 12 :   0.1250 0.0000 0.2500  plane waves:    8767
 k-point 13 :   0.2500 0.0000 0.2500  plane waves:    8740
 k-point 14 :   0.3750 0.0000 0.2500  plane waves:    8719
 k-point 15 :   0.5000 0.0000 0.2500  plane waves:    8716
 k-point 16 :  -0.3750 0.0000 0.2500  plane waves:    8719
 k-point 17 :  -0.2500 0.0000 0.2500  plane waves:    8740
 k-point 18 :  -0.1250 0.0000 0.2500  plane waves:    8767
 k-point 19 :   0.1250 0.1250 0.2500  plane waves:    8739
 k-point 20 :   0.2500 0.1250 0.2500  plane waves:    8733
 k-point 21 :   0.3750 0.1250 0.2500  plane waves:    8720
 k-point 22 :   0.5000 0.1250 0.2500  plane waves:    8720
 k-point 23 :  -0.3750 0.1250 0.2500  plane waves:    8733
 k-point 24 :   0.2500 0.2500 0.2500  plane waves:    8737
 k-point 25 :   0.3750 0.2500 0.2500  plane waves:    8724
 k-point 26 :   0.0000 0.0000 0.5000  plane waves:    8764
 k-point 27 :   0.1250 0.0000 0.5000  plane waves:    8770
 k-point 28 :   0.2500 0.0000 0.5000  plane waves:    8748
 k-point 29 :   0.3750 0.0000 0.5000  plane waves:    8712
 k-point 30 :   0.5000 0.0000 0.5000  plane waves:    8704
 k-point 31 :   0.1250 0.1250 0.5000  plane waves:    8750
 k-point 32 :   0.2500 0.1250 0.5000  plane waves:    8728
 k-point 33 :   0.3750 0.1250 0.5000  plane waves:    8728
 k-point 34 :   0.2500 0.2500 0.5000  plane waves:    8720
 k-point 35 :   0.3750 0.2500 0.5000  plane waves:    8734

 maximum and minimum number of plane-waves per node :       381      347

 maximum number of plane-waves:      8806
 maximum index in each direction: 
   IXMAX=    9   IYMAX=    9   IZMAX=   26
   IXMIN=  -10   IYMIN=   -9   IZMIN=  -26

 WARNING: aliasing errors must be expected set NGX to  40 to avoid them
 WARNING: aliasing errors must be expected set NGY to  38 to avoid them
 WARNING: aliasing errors must be expected set NGZ to 106 to avoid them
 aliasing errors are usually negligible using standard VASP settings
 and one can safely disregard these warnings

 parallel 3D FFT for wavefunctions:
    minimum data exchange during FFTs selected (reduces bandwidth)
 parallel 3D FFT for charge:
    minimum data exchange during FFTs selected (reduces bandwidth)


 total amount of memory used by VASP on root node    37771. kBytes
========================================================================

   base      :      30000. kBytes
   nonl-proj :       1825. kBytes
   fftplans  :        475. kBytes
   grid      :        735. kBytes
   one-center:          6. kBytes
   wavefun   :       4730. kBytes

     INWAV:  cpu time    0.00: real time    0.00
 Broyden mixing: mesh for mixing (old mesh)
   NGX = 19   NGY = 19   NGZ = 53
  (NGX  = 60   NGY  = 60   NGZ  =160)
  gives a total of  19133 points

 initial charge density was supplied:
 charge density of overlapping atoms calculated
 number of electron     144.0000000 magnetization 
 keeping initial charge density in first step


--------------------------------------------------------------------------------------------------------


 Maximum index for augmentation-charges          518 (set IRDMAX)


--------------------------------------------------------------------------------------------------------


 First call to EWALD:  gamma=   0.277
 Maximum number of real-space cells 4x 4x 2
 Maximum number of reciprocal cells 2x 2x 5

 FEWALD executed in parallel
    FEWALD:  cpu time    0.00: real time    0.00


----------------------------------------- Iteration    1(   1)  ---------------------------------------


    POTLOK:  cpu time    0.03: real time    0.03
    SETDIJ:  cpu time    0.00: real time    0.00
     EDDAV:  cpu time    2.88: real time    2.89
       DOS:  cpu time    0.00: real time    0.00
    --------------------------------------------
      LOOP:  cpu time    2.92: real time    2.92

 eigenvalue-minimisations  :  6176
 total energy-change (2. order) : 0.8828359E+03  (-0.8364750E+04)
 number of electron     144.0000000 magnetization 
 augmentation part      144.0000000 magnetization 

 Free energy of the ion-electron system (eV)
  ---------------------------------------------------
  alpha Z        PSCENC =       221.81090548
  Ewald energy   TEWEN  =     -7130.12520345
  -Hartree energ DENC   =     -1925.02072139
  -exchange      EXHF   =         0.00000000
  -V(xc)+E(xc)   XCENC  =       197.44224081
  PAW double counting   =      4861.73017950    -4512.10075916
  entropy T*S    EENTRO =        -0.00908475
  eigenvalues    EBANDS =       730.62058964
  atomic energy  EATOM  =      8438.48773170
  ---------------------------------------------------
  free energy    TOTEN  =       882.83587838 eV

  energy without entropy =      882.84496313  energy(sigma->0) =      882.84042075


--------------------------------------------------------------------------------------------------------




----------------------------------------- Iteration    1(   2)  ---------------------------------------


     EDDAV:  cpu time    3.35: real time    3.35
       DOS:  cpu time    0.00: real time    0.00
    --------------------------------------------
      LOOP:  cpu time    3.35: real time    3.36

 eigenvalue-minimisations  :  7576
 total energy-change (2. order) :-0.1078319E+04  (-0.1053130E+04)
 number of electron     144.0000000 magnetization 
 augmentation part      144.0000000 magnetization 

 Free energy of the ion-electron system (eV)
  ---------------------------------------------------
  alpha Z        PSCENC =       221.81090548
  Ewald energy   TEWEN  =     -7130.12520345
  -Hartree energ DENC   =     -1925.02072139
  -exchange      EXHF   =         0.00000000
  -V(xc)+E(xc)   XCENC  =       197.44224081
  PAW double counting   =      4861.73017950    -4512.10075916
  entropy T*S    EENTRO =        -0.00000000
  eigenvalues    EBANDS =      -347.70795013
  atomic energy  EATOM  =      8438.48773170
  ---------------------------------------------------
  free energy    TOTEN  =      -195.48357664 eV

  energy without entropy =     -195.48357664  energy(sigma->0) =     -195.48357664


--------------------------------------------------------------------------------------------------------




----------------------------------------- Iteration    1(   3)  ---------------------------------------


     EDDAV:  cpu time    3.27: real time    3.28
       DOS:  cpu time    0.00: real time    0.00
    --------------------------------------------
      LOOP:  cpu time    3.28: real time    3.29

 eigenvalue-minimisations  :  7272
 total energy-change (2. order) :-0.5503253E+02  (-0.5482392E+02)
 number of electron     144.0000000 magnetization 
 augmentation part      144.0000000 magnetization 

 Free energy of the ion-electron system (eV)
  ---------------------------------------------------
  alpha Z        PSCENC =       221.81090548
  Ewald energy   TEWEN  =     -7130.12520345
  -Hartree energ DENC   =     -1925.02072139
  -exchange      EXHF   =         0.00000000
  -V(xc)+E(xc)   XCENC  =       197.44224081
  PAW double counting   =      4861.73017950    -4512.10075916
  entropy T*S    EENTRO =        -0.00000000
  eigenvalues    EBANDS =      -402.74047669
  atomic energy  EATOM  =      8438.48773170
  ---------------------------------------------------
  free energy    TOTEN  =      -250.51610321 eV

  energy without entropy =     -250.51610321  energy(sigma->0) =     -250.51610321


--------------------------------------------------------------------------------------------------------




----------------------------------------- Iteration    1(   4)  ---------------------------------------


     EDDAV:  cpu time    3.28: real time    3.29
       DOS:  cpu time    0.00: real time    0.00
    --------------------------------------------
      LOOP:  cpu time    3.29: real time    3.30

 eigenvalue-minimisations  :  7264
 total energy-change (2. order) :-0.6387655E+00  (-0.6370655E+00)
 number of electron     144.0000000 magnetization 
 augmentation part      144.0000000 magnetization 

 Free energy of the ion-electron system (eV)
  ---------------------------------------------------
  alpha Z        PSCENC =       221.81090548
  Ewald energy   TEWEN  =     -7130.12520345
  -Hartree energ DENC   =     -1925.02072139
  -exchange      EXHF   =         0.00000000
  -V(xc)+E(xc)   XCENC  =       197.44224081
  PAW double counting   =      4861.73017950    -4512.10075916
  entropy T*S    EENTRO =        -0.00000000
  eigenvalues    EBANDS =      -403.37924222
  atomic energy  EATOM  =      8438.48773170
  ---------------------------------------------------
  free energy    TOTEN  =      -251.15486873 eV

  energy without entropy =     -251.15486873  energy(sigma->0) =     -251.15486873


--------------------------------------------------------------------------------------------------------




----------------------------------------- Iteration    1(   5)  ---------------------------------------


     EDDAV:  cpu time    3.25: real time    3.25
       DOS:  cpu time    0.00: real time    0.00
    CHARGE:  cpu time    0.15: real time    0.15
    MIXING:  cpu time    0.00: real time    0.00
    --------------------------------------------
      LOOP:  cpu time    3.40: real time    3.41

 eigenvalue-minimisations  :  7168
 total energy-change (2. order) :-0.1035199E-01  (-0.1034176E-01)
 number of electron     143.9999981 magnetization 
 augmentation part       14.2843612 magnetization 

 Broyden mixing:
  rms(total) = 0.29652E+01    rms(broyden)= 0.29649E+01
  rms(prec ) = 0.35571E+01
  weight for this iteration     100.00

 Free energy of the ion-electron system (eV)
  ---------------------------------------------------
  alpha Z        PSCENC =       221.81090548
  Ewald energy   TEWEN  =     -7130.12520345
  -Hartree energ DENC   =     -1925.02072139
  -exchange      EXHF   =         0.00000000
  -V(xc)+E(xc)   XCENC  =       197.44224081
  PAW double counting   =      4861.73017950    -4512.10075916
  entropy T*S    EENTRO =        -0.00000000
  eigenvalues    EBANDS =      -403.38959421
  atomic energy  EATOM  =      8438.48773170
  ---------------------------------------------------
  free energy    TOTEN  =      -251.16522072 eV

  energy without entropy =     -251.16522072  energy(sigma->0) =     -251.16522072


--------------------------------------------------------------------------------------------------------




----------------------------------------- Iteration    1(   6)  ---------------------------------------


    POTLOK:  cpu time    0.01: real time    0.01
    SETDIJ:  cpu time    0.00: real time    0.00
    EDDIAG:  cpu time    0.85: real time    0.85
  RMM-DIIS:  cpu time    1.34: real time    1.34
    ORTHCH:  cpu time    0.16: real time    0.16
       DOS:  cpu time    0.00: real time    0.00
    CHARGE:  cpu time    0.14: real time    0.14
    MIXING:  cpu time    0.00: real time    0.00
    --------------------------------------------
      LOOP:  cpu time    2.51: real time    2.52

 eigenvalue-minimisations  :  6160
 total energy-change (2. order) : 0.2455384E+02  (-0.1123295E+02)
 number of electron     143.9999984 magnetization 
 augmentation part       12.0961681 magnetization 

 Broyden mixing:
  rms(total) = 0.79870E+00    rms(broyden)= 0.79808E+00
  rms(prec ) = 0.88860E+00
  weight for this iteration     100.00

 eigenvalues of (default mixing * dielectric matrix)
  average eigenvalue GAMMA=   0.9572
  0.9572

 Free energy of the ion-electron system (eV)
  ---------------------------------------------------
  alpha Z        PSCENC =       221.81090548
  Ewald energy   TEWEN  =     -7130.12520345
  -Hartree energ DENC   =     -2212.30935507
  -exchange      EXHF   =         0.00000000
  -V(xc)+E(xc)   XCENC  =       218.10629623
  PAW double counting   =      5695.07109830    -5351.57526789
  entropy T*S    EENTRO =        -0.00000000
  eigenvalues    EBANDS =      -106.07758640
  atomic energy  EATOM  =      8438.48773170
  ---------------------------------------------------
  free energy    TOTEN  =      -226.61138111 eV

  energy without entropy =     -226.61138111  energy(sigma->0) =     -226.61138111


--------------------------------------------------------------------------------------------------------




----------------------------------------- Iteration    1(   7)  ---------------------------------------


    POTLOK:  cpu time    0.01: real time    0.01
    SETDIJ:  cpu time    0.00: real time    0.00
    EDDIAG:  cpu time    0.84: real time    0.85
  RMM-DIIS:  cpu time    1.34: real time    1.34
    ORTHCH:  cpu time    0.16: real time    0.16
       DOS:  cpu time    0.00: real time    0.00
    CHARGE:  cpu time    0.14: real time    0.14
    MIXING:  cpu time    0.00: real time    0.00
    --------------------------------------------
      LOOP:  cpu time    2.50: real time    2.52

 eigenvalue-minimisations  :  6160
 total energy-change (2. order) : 0.7629406E-01  (-0.2349335E+00)
 number of electron     143.9999984 magnetization 
 augmentation part       11.8846344 magnetization 

 Broyden mixing:
  rms(total) = 0.54444E+00    rms(broyden)= 0.54438E+00
  rms(prec ) = 0.58969E+00
  weight for this iteration     100.00

 eigenvalues of (default mixing * dielectric matrix)
  average eigenvalue GAMMA=   1.7440
  1.1070  2.3811

 Free energy of the ion-electron system (eV)
  ---------------------------------------------------
  alpha Z        PSCENC =       221.81090548
  Ewald energy   TEWEN  =     -7130.12520345
  -Hartree energ DENC   =     -2239.09533795
  -exchange      EXHF   =         0.00000000
  -V(xc)+E(xc)   XCENC  =       220.38118340
  PAW double counting   =      5880.81696513    -5537.23555172
  entropy T*S    EENTRO =        -0.00000000
  eigenvalues    EBANDS =       -81.57577964
  atomic energy  EATOM  =      8438.48773170
  ---------------------------------------------------
  free energy    TOTEN  =      -226.53508705 eV

  energy without entropy =     -226.53508705  energy(sigma->0) =     -226.53508705


--------------------------------------------------------------------------------------------------------




----------------------------------------- Iteration    1(   8)  ---------------------------------------


    POTLOK:  cpu time    0.01: real time    0.01
    SETDIJ:  cpu time    0.00: real time    0.00
    EDDIAG:  cpu time    0.85: real time    0.85
  RMM-DIIS:  cpu time    1.34: real time    1.34
    ORTHCH:  cpu time    0.16: real time    0.16
       DOS:  cpu time    0.00: real time    0.00
    CHARGE:  cpu time    0.14: real time    0.14
    MIXING:  cpu time    0.00: real time    0.00
    --------------------------------------------
      LOOP:  cpu time    2.51: real time    2.53

 eigenvalue-minimisations  :  6160
 total energy-change (2. order) :-0.3353542E-01  (-0.6168292E-01)
 number of electron     143.9999984 magnetization 
 augmentation part       11.9869076 magnetization 

 Broyden mixing:
  rms(total) = 0.10995E+00    rms(broyden)= 0.10994E+00
  rms(prec ) = 0.12921E+00
  weight for this iteration     100.00

 eigenvalues of (default mixing * dielectric matrix)
  average eigenvalue GAMMA=   1.6633
  2.6528  1.1686  1.1686

 Free energy of the ion-electron system (eV)
  ---------------------------------------------------
  alpha Z        PSCENC =       221.81090548
  Ewald energy   TEWEN  =     -7130.12520345
  -Hartree energ DENC   =     -2240.38670288
  -exchange      EXHF   =         0.00000000
  -V(xc)+E(xc)   XCENC  =       221.28103363
  PAW double counting   =      6054.86194830    -5710.43299685
  entropy T*S    EENTRO =        -0.00000000
  eigenvalues    EBANDS =       -82.06533840
  atomic energy  EATOM  =      8438.48773170
  ---------------------------------------------------
  free energy    TOTEN  =      -226.56862247 eV

  energy without entropy =     -226.56862247  energy(sigma->0) =     -226.56862247


--------------------------------------------------------------------------------------------------------




----------------------------------------- Iteration    1(   9)  ---------------------------------------


    POTLOK:  cpu time    0.01: real time    0.01
    SETDIJ:  cpu time    0.00: real time    0.00
    EDDIAG:  cpu time    0.84: real time    0.85
  RMM-DIIS:  cpu time    1.34: real time    1.34
    ORTHCH:  cpu time    0.16: real time    0.16
       DOS:  cpu time    0.00: real time    0.00
    CHARGE:  cpu time    0.14: real time    0.14
    MIXING:  cpu time    0.00: real time    0.00
    --------------------------------------------
      LOOP:  cpu time    2.50: real time    2.52

 eigenvalue-minimisations  :  6160
 total energy-change (2. order) : 0.2269672E-01  (-0.2396714E-01)
 number of electron     143.9999984 magnetization 
 augmentation part       11.8934820 magnetization 

 Broyden mixing:
  rms(total) = 0.29139E-01    rms(broyden)= 0.29112E-01
  rms(prec ) = 0.33776E-01
  weight for this iteration     100.00

 eigenvalues of (default mixing * dielectric matrix)
  average eigenvalue GAMMA=   1.8659
  2.9109  2.5137  1.0196  1.0196

 Free energy of the ion-electron system (eV)
  ---------------------------------------------------
  alpha Z        PSCENC =       221.81090548
  Ewald energy   TEWEN  =     -7130.12520345
  -Hartree energ DENC   =     -2255.90732618
  -exchange      EXHF   =         0.00000000
  -V(xc)+E(xc)   XCENC  =       222.46609984
  PAW double counting   =      6091.70733501    -5747.59404491
  entropy T*S    EENTRO =        -0.00000000
  eigenvalues    EBANDS =       -67.39142324
  atomic energy  EATOM  =      8438.48773170
  ---------------------------------------------------
  free energy    TOTEN  =      -226.54592575 eV

  energy without entropy =     -226.54592575  energy(sigma->0) =     -226.54592575


--------------------------------------------------------------------------------------------------------




----------------------------------------- Iteration    1(  10)  ---------------------------------------


    POTLOK:  cpu time    0.01: real time    0.01
    SETDIJ:  cpu time    0.00: real time    0.00
    EDDIAG:  cpu time    0.85: real time    0.85
  RMM-DIIS:  cpu time    1.34: real time    1.35
    ORTHCH:  cpu time    0.16: real time    0.16
       DOS:  cpu time    0.00: real time    0.00
    CHARGE:  cpu time    0.14: real time    0.14
    MIXING:  cpu time    0.00: real time    0.00
    --------------------------------------------
      LOOP:  cpu time    2.50: real time    2.52

 eigenvalue-minimisations  :  6166
 total energy-change (2. order) :-0.2257102E-03  (-0.4997702E-03)
 number of electron     143.9999984 magnetization 
 augmentation part       11.8902909 magnetization 

 Broyden mixing:
  rms(total) = 0.26515E-01    rms(broyden)= 0.26513E-01
  rms(prec ) = 0.30417E-01
  weight for this iteration     100.00

 eigenvalues of (default mixing * dielectric matrix)
  average eigenvalue GAMMA=   1.6954
  2.7182  2.4201  1.0849  1.0849  1.1690

 Free energy of the ion-electron system (eV)
  ---------------------------------------------------
  alpha Z        PSCENC =       221.81090548
  Ewald energy   TEWEN  =     -7130.12520345
  -Hartree energ DENC   =     -2255.10198023
  -exchange      EXHF   =         0.00000000
  -V(xc)+E(xc)   XCENC  =       222.41285413
  PAW double counting   =      6069.58929248    -5725.51798772
  entropy T*S    EENTRO =        -0.00000000
  eigenvalues    EBANDS =       -68.10176384
  atomic energy  EATOM  =      8438.48773170
  ---------------------------------------------------
  free energy    TOTEN  =      -226.54615146 eV

  energy without entropy =     -226.54615146  energy(sigma->0) =     -226.54615146


--------------------------------------------------------------------------------------------------------




----------------------------------------- Iteration    1(  11)  ---------------------------------------


    POTLOK:  cpu time    0.02: real time    0.01
    SETDIJ:  cpu time    0.00: real time    0.00
    EDDIAG:  cpu time    0.84: real time    0.85
  RMM-DIIS:  cpu time    1.34: real time    1.34
    ORTHCH:  cpu time    0.15: real time    0.16
       DOS:  cpu time    0.00: real time    0.00
    CHARGE:  cpu time    0.14: real time    0.14
    MIXING:  cpu time    0.00: real time    0.00
    --------------------------------------------
      LOOP:  cpu time    2.50: real time    2.52

 eigenvalue-minimisations  :  6160
 total energy-change (2. order) : 0.1569075E-02  (-0.9397421E-03)
 number of electron     143.9999984 magnetization 
 augmentation part       11.9092193 magnetization 

 Broyden mixing:
  rms(total) = 0.27894E-02    rms(broyden)= 0.27745E-02
  rms(prec ) = 0.31894E-02
  weight for this iteration     100.00

 eigenvalues of (default mixing * dielectric matrix)
  average eigenvalue GAMMA=   1.8666
  3.0096  2.5535  2.5535  1.0661  1.0661  0.9511

 Free energy of the ion-electron system (eV)
  ---------------------------------------------------
  alpha Z        PSCENC =       221.81090548
  Ewald energy   TEWEN  =     -7130.12520345
  -Hartree energ DENC   =     -2252.41247711
  -exchange      EXHF   =         0.00000000
  -V(xc)+E(xc)   XCENC  =       222.22064294
  PAW double counting   =      6064.99653333    -5720.85785108
  entropy T*S    EENTRO =        -0.00000000
  eigenvalues    EBANDS =       -70.66486419
  atomic energy  EATOM  =      8438.48773170
  ---------------------------------------------------
  free energy    TOTEN  =      -226.54458239 eV

  energy without entropy =     -226.54458239  energy(sigma->0) =     -226.54458239


--------------------------------------------------------------------------------------------------------




----------------------------------------- Iteration    1(  12)  ---------------------------------------


    POTLOK:  cpu time    0.01: real time    0.01
    SETDIJ:  cpu time    0.00: real time    0.00
    EDDIAG:  cpu time    0.84: real time    0.85
  RMM-DIIS:  cpu time    1.34: real time    1.34
    ORTHCH:  cpu time    0.16: real time    0.16
       DOS:  cpu time    0.00: real time    0.00
    CHARGE:  cpu time    0.14: real time    0.14
    MIXING:  cpu time    0.00: real time    0.00
    --------------------------------------------
      LOOP:  cpu time    2.50: real time    2.52

 eigenvalue-minimisations  :  6160
 total energy-change (2. order) : 0.8954252E-05  (-0.6678162E-05)
 number of electron     143.9999984 magnetization 
 augmentation part       11.9085944 magnetization 

 Broyden mixing:
  rms(total) = 0.10497E-02    rms(broyden)= 0.10489E-02
  rms(prec ) = 0.11655E-02
  weight for this iteration     100.00

 eigenvalues of (default mixing * dielectric matrix)
  average eigenvalue GAMMA=   1.7085
  2.9133  2.4262  2.4262  1.0726  1.0726  0.9680  1.0810

 Free energy of the ion-electron system (eV)
  ---------------------------------------------------
  alpha Z        PSCENC =       221.81090548
  Ewald energy   TEWEN  =     -7130.12520345
  -Hartree energ DENC   =     -2252.71224173
  -exchange      EXHF   =         0.00000000
  -V(xc)+E(xc)   XCENC  =       222.23986450
  PAW double counting   =      6066.15916142    -5722.02365427
  entropy T*S    EENTRO =        -0.00000000
  eigenvalues    EBANDS =       -70.38113708
  atomic energy  EATOM  =      8438.48773170
  ---------------------------------------------------
  free energy    TOTEN  =      -226.54457344 eV

  energy without entropy =     -226.54457344  energy(sigma->0) =     -226.54457344


--------------------------------------------------------------------------------------------------------




----------------------------------------- Iteration    1(  13)  ---------------------------------------


    POTLOK:  cpu time    0.02: real time    0.01
    SETDIJ:  cpu time    0.00: real time    0.00
    EDDIAG:  cpu time    0.85: real time    0.85
  RMM-DIIS:  cpu time    1.26: real time    1.26
    ORTHCH:  cpu time    0.16: real time    0.17
       DOS:  cpu time    0.00: real time    0.00
    CHARGE:  cpu time    0.14: real time    0.14
    MIXING:  cpu time    0.00: real time    0.00
    --------------------------------------------
      LOOP:  cpu time    2.42: real time    2.44

 eigenvalue-minimisations  :  5673
 total energy-change (2. order) : 0.1214358E-05  (-0.9738785E-06)
 number of electron     143.9999984 magnetization 
 augmentation part       11.9080288 magnetization 

 Broyden mixing:
  rms(total) = 0.11735E-03    rms(broyden)= 0.11727E-03
  rms(prec ) = 0.13702E-03
  weight for this iteration     100.00

 eigenvalues of (default mixing * dielectric matrix)
  average eigenvalue GAMMA=   1.7820
  2.9399  2.7395  2.3078  2.1382  1.0773  1.0773  1.0074  0.9690

 Free energy of the ion-electron system (eV)
  ---------------------------------------------------
  alpha Z        PSCENC =       221.81090548
  Ewald energy   TEWEN  =     -7130.12520345
  -Hartree energ DENC   =     -2252.77166275
  -exchange      EXHF   =         0.00000000
  -V(xc)+E(xc)   XCENC  =       222.24346399
  PAW double counting   =      6066.00160608    -5721.86797137
  entropy T*S    EENTRO =        -0.00000000
  eigenvalues    EBANDS =       -70.32344189
  atomic energy  EATOM  =      8438.48773170
  ---------------------------------------------------
  free energy    TOTEN  =      -226.54457222 eV

  energy without entropy =     -226.54457222  energy(sigma->0) =     -226.54457222


--------------------------------------------------------------------------------------------------------




----------------------------------------- Iteration    1(  14)  ---------------------------------------


    POTLOK:  cpu time    0.01: real time    0.01
    SETDIJ:  cpu time    0.00: real time    0.00
    EDDIAG:  cpu time    0.84: real time    0.85
  RMM-DIIS:  cpu time    0.86: real time    0.86
    ORTHCH:  cpu time    0.16: real time    0.16
       DOS:  cpu time    0.00: real time    0.00
    --------------------------------------------
      LOOP:  cpu time    1.88: real time    1.90

 eigenvalue-minimisations  :  3640
 total energy-change (2. order) :-0.1950733E-06  (-0.5036991E-07)
 number of electron     143.9999984 magnetization 
 augmentation part       11.9080288 magnetization 

 Free energy of the ion-electron system (eV)
  ---------------------------------------------------
  alpha Z        PSCENC =       221.81090548
  Ewald energy   TEWEN  =     -7130.12520345
  -Hartree energ DENC   =     -2252.75811684
  -exchange      EXHF   =         0.00000000
  -V(xc)+E(xc)   XCENC  =       222.24230434
  PAW double counting   =      6065.93225794    -5721.79761805
  entropy T*S    EENTRO =        -0.00000000
  eigenvalues    EBANDS =       -70.33683353
  atomic energy  EATOM  =      8438.48773170
  ---------------------------------------------------
  free energy    TOTEN  =      -226.54457242 eV

  energy without entropy =     -226.54457242  energy(sigma->0) =     -226.54457242


--------------------------------------------------------------------------------------------------------




 average (electrostatic) potential at core
  the test charge radii are     1.0406  0.7215
  (the norm of the test charge is              1.0000)
       1 -71.4720       2 -71.4719       3 -71.4720       4 -71.4719       5 -71.4720
       6 -71.4720       7 -71.4720       8 -71.4720       9 -71.4720      10 -71.4720
      11 -71.4720      12 -71.4720      13 -68.0806      14 -68.0806      15 -68.0806
      16 -68.0806      17 -68.0806      18 -68.0806      19 -68.0806      20 -68.0806
      21 -68.0806      22 -68.0806      23 -68.0806      24 -68.0806      25 -68.0806
      26 -68.0806      27 -68.0806      28 -68.0806      29 -68.0806      30 -68.0806



 E-fermi :   6.3274     XC(G=0): -11.6118     alpha+bet :-16.4127


 k-point     1 :       0.0000    0.0000    0.0000
  band No.  band energies     occupation 
      1     -13.2265      2.00000
      2     -12.7724      2.00000
      3     -12.7724      2.00000
      4     -11.6812      2.00000
      5     -11.6812      2.00000
      6     -10.9871      2.00000
      7     -10.7229      2.00000
      8     -10.7229      2.00000
      9     -10.6597      2.00000
     10     -10.6597      2.00000
     11     -10.6597      2.00000
     12     -10.6597      2.00000
     13     -10.5053      2.00000
     14     -10.5053      2.00000
     15     -10.5053      2.00000
     16     -10.5053      2.00000
     17     -10.4147      2.00000
     18     -10.4147      2.00000
     19      -0.9775      2.00000
     20      -0.0134      2.00000
     21       0.0348      2.00000
     22       0.0348      2.00000
     23       0.3732      2.00000
     24       0.3732      2.00000
     25       0.4597      2.00000
     26       0.4597      2.00000
     27       0.7049      2.00000
     28       0.7049      2.00000
     29       0.8437      2.00000
     30       0.8437      2.00000
     31       0.8437      2.00000
     32       0.8437      2.00000
     33       1.4670      2.00000
     34       1.5951      2.00000
     35       1.5951      2.00000
     36       2.0028      2.00000
     37       2.0028      2.00000
     38       2.0028      2.00000
     39       2.0028      2.00000
     40       2.5752      2.00000
     41       2.8577      2.00000
     42       2.8577      2.00000
     43       2.8734      2.00000
     44       3.1403      2.00000
     45       3.1403      2.00000
     46       3.3612      2.00000
     47       3.3612      2.00000
     48       3.3612      2.00000
     49       3.3612      2.00000
     50       4.1765      2.00000
     51       4.1765      2.00000
     52       4.3915      2.00000
     53       4.3915      2.00000
     54       4.4680      2.00000
     55       4.4680      2.00000
     56       4.4680      2.00000
     57       4.4680      2.00000
     58       4.5317      2.00000
     59       4.5317      2.00000
     60       5.2986      2.00000
     61       5.2986      2.00000
     62       5.2986      2.00000
     63       5.2986      2.00000
     64       5.3102      2.00000
     65       5.3102      2.00000
     66       5.5945      2.00000
     67       5.5945      2.00000
     68       5.5945      2.00000
     69       5.5945      2.00000
     70       5.7364      2.00000
     71       5.7364      2.00000
     72       5.7717      2.00000
     73      11.7102      0.00000
     74      13.2380      0.00000
     75      13.2380      0.00000
     76      14.6903      0.00000
     77      14.6903      0.00000
     78      14.7317      0.00000
     79      16.1972      0.00000
     80      16.2069      0.00000
     81      16.2134      0.00000
     82      17.1182      0.00000
     83      17.1294      0.00000
     84      17.1742      0.00000
     85      17.1843      0.00000
     86      17.2803      0.00000
     87      17.8646      0.00000
     88      18.0099      0.00000

 k-point     2 :       0.1250    0.0000    0.0000
  band No.  band energies     occupation 
      1     -13.1555      2.00000
      2     -12.7090      2.00000
      3     -12.7080      2.00000
      4     -11.6447      2.00000
      5     -11.6393      2.00000
      6     -10.9995      2.00000
      7     -10.8496      2.00000
      8     -10.8058      2.00000
      9     -10.7629      2.00000
     10     -10.7582      2.00000
     11     -10.6711      2.00000
     12     -10.6391      2.00000
     13     -10.5942      2.00000
     14     -10.5702      2.00000
     15     -10.4368      2.00000
     16     -10.4342      2.00000
     17     -10.4124      2.00000
     18     -10.4084      2.00000
     19      -0.9110      2.00000
     20      -0.2126      2.00000
     21      -0.0104      2.00000
     22       0.0590      2.00000
     23       0.2807      2.00000
     24       0.2825      2.00000
     25       0.2894      2.00000
     26       0.3120      2.00000
     27       0.4921      2.00000
     28       0.7707      2.00000
     29       1.0355      2.00000
     30       1.0565      2.00000
     31       1.1409      2.00000
     32       1.2351      2.00000
     33       1.2429      2.00000
     34       1.4777      2.00000
     35       1.9042      2.00000
     36       1.9450      2.00000
     37       2.0745      2.00000
     38       2.1747      2.00000
     39       2.2018      2.00000
     40       2.8477      2.00000
     41       2.8927      2.00000
     42       2.9019      2.00000
     43       3.0515      2.00000
     44       3.1069      2.00000
     45       3.1122      2.00000
     46       3.2799      2.00000
     47       3.3805      2.00000
     48       3.6595      2.00000
     49       3.8277      2.00000
     50       3.9826      2.00000
     51       4.1214      2.00000
     52       4.2282      2.00000
     53       4.2391      2.00000
     54       4.2600      2.00000
     55       4.4239      2.00000
     56       4.4873      2.00000
     57       4.5673      2.00000
     58       4.5686      2.00000
     59       4.6878      2.00000
     60       5.0722      2.00000
     61       5.1503      2.00000
     62       5.1662      2.00000
     63       5.1717      2.00000
     64       5.1962      2.00000
     65       5.2996      2.00000
     66       5.4481      2.00000
     67       5.4974      2.00000
     68       5.5266      2.00000
     69       5.5381      2.00000
     70       5.5561      2.00000
     71       5.7371      2.00000
     72       5.7529      2.00000
     73      12.0524      0.00000
     74      13.4761      0.00000
     75      13.4764      0.00000
     76      14.9527      0.00000
     77      14.9533      0.00000
     78      15.0197      0.00000
     79      15.9180      0.00000
     80      16.2875      0.00000
     81      16.3173      0.00000
     82      16.5990      0.00000
     83      16.8755      0.00000
     84      16.9084      0.00000
     85      17.1264      0.00000
     86      17.2369      0.00000
     87      17.4450      0.00000
     88      17.5844      0.00000

 k-point     3 :       0.2500    0.0000    0.0000
  band No.  band energies     occupation 
      1     -12.9486      2.00000
      2     -12.5293      2.00000
      3     -12.5202      2.00000
      4     -11.5969      2.00000
      5     -11.5196      2.00000
      6     -11.1591      2.00000
      7     -11.1007      2.00000
      8     -10.9754      2.00000
      9     -10.9092      2.00000
     10     -10.8328      2.00000
     11     -10.7676      2.00000
     12     -10.7511      2.00000
     13     -10.6368      2.00000
     14     -10.5549      2.00000
     15     -10.5229      2.00000
     16     -10.4804      2.00000
     17     -10.3723      2.00000
     18     -10.3688      2.00000
     19      -0.7491      2.00000
     20      -0.2970      2.00000
     21      -0.1304      2.00000
     22      -0.1293      2.00000
     23       0.0680      2.00000
     24       0.1220      2.00000
     25       0.1747      2.00000
     26       0.3259      2.00000
     27       0.5365      2.00000
     28       0.8171      2.00000
     29       1.2782      2.00000
     30       1.3366      2.00000
     31       1.3562      2.00000
     32       1.3680      2.00000
     33       1.4622      2.00000
     34       1.6768      2.00000
     35       1.8267      2.00000
     36       2.1319      2.00000
     37       2.3232      2.00000
     38       2.4901      2.00000
     39       2.5866      2.00000
     40       2.7855      2.00000
     41       2.9424      2.00000
     42       3.2620      2.00000
     43       3.3417      2.00000
     44       3.3960      2.00000
     45       3.4971      2.00000
     46       3.5379      2.00000
     47       3.6051      2.00000
     48       3.6306      2.00000
     49       3.8808      2.00000
     50       3.9207      2.00000
     51       3.9331      2.00000
     52       4.1019      2.00000
     53       4.1440      2.00000
     54       4.2397      2.00000
     55       4.2980      2.00000
     56       4.3942      2.00000
     57       4.4643      2.00000
     58       4.4849      2.00000
     59       4.5526      2.00000
     60       4.6397      2.00000
     61       4.8317      2.00000
     62       4.9270      2.00000
     63       5.0177      2.00000
     64       5.0774      2.00000
     65       5.2048      2.00000
     66       5.3013      2.00000
     67       5.3692      2.00000
     68       5.3756      2.00000
     69       5.3846      2.00000
     70       5.4017      2.00000
     71       5.6821      2.00000
     72       5.6856      2.00000
     73      12.8731      0.00000
     74      14.0531      0.00000
     75      14.0583      0.00000
     76      15.4428      0.00000
     77      15.5482      0.00000
     78      15.5770      0.00000
     79      15.7041      0.00000
     80      15.8495      0.00000
     81      16.2936      0.00000
     82      16.3026      0.00000
     83      16.5164      0.00000
     84      16.5622      0.00000
     85      16.7051      0.00000
     86      16.7941      0.00000
     87      16.8957      0.00000
     88      16.9775      0.00000

 k-point     4 :       0.3750    0.0000    0.0000
  band No.  band energies     occupation 
      1     -12.6250      2.00000
      2     -12.2741      2.00000
      3     -12.2276      2.00000
      4     -11.8107      2.00000
      5     -11.4839      2.00000
      6     -11.3556      2.00000
      7     -11.2679      2.00000
      8     -11.1120      2.00000
      9     -11.0376      2.00000
     10     -10.8966      2.00000
     11     -10.8605      2.00000
     12     -10.7534      2.00000
     13     -10.6861      2.00000
     14     -10.6480      2.00000
     15     -10.5699      2.00000
     16     -10.5219      2.00000
     17     -10.4010      2.00000
     18     -10.3661      2.00000
     19      -0.6578      2.00000
     20      -0.4204      2.00000
     21      -0.2092      2.00000
     22      -0.0376      2.00000
     23      -0.0154      2.00000
     24      -0.0070      2.00000
     25       0.1624      2.00000
     26       0.6666      2.00000
     27       0.8123      2.00000
     28       0.8797      2.00000
     29       1.1999      2.00000
     30       1.2411      2.00000
     31       1.4967      2.00000
     32       1.5899      2.00000
     33       1.6579      2.00000
     34       1.8849      2.00000
     35       1.9978      2.00000
     36       2.1713      2.00000
     37       2.3078      2.00000
     38       2.5734      2.00000
     39       2.8131      2.00000
     40       2.9343      2.00000
     41       3.1394      2.00000
     42       3.1760      2.00000
     43       3.3481      2.00000
     44       3.3999      2.00000
     45       3.4566      2.00000
     46       3.5317      2.00000
     47       3.5411      2.00000
     48       3.7436      2.00000
     49       3.8198      2.00000
     50       4.0102      2.00000
     51       4.1051      2.00000
     52       4.1156      2.00000
     53       4.1553      2.00000
     54       4.1578      2.00000
     55       4.1905      2.00000
     56       4.3359      2.00000
     57       4.4993      2.00000
     58       4.5029      2.00000
     59       4.5154      2.00000
     60       4.6865      2.00000
     61       4.7079      2.00000
     62       4.8401      2.00000
     63       4.8415      2.00000
     64       5.0178      2.00000
     65       5.0991      2.00000
     66       5.1546      2.00000
     67       5.2671      2.00000
     68       5.2693      2.00000
     69       5.3722      2.00000
     70       5.4346      2.00000
     71       5.5528      2.00000
     72       5.5961      2.00000
     73      13.8770      0.00000
     74      14.7150      0.00000
     75      14.7349      0.00000
     76      14.9941      0.00000
     77      15.1044      0.00000
     78      15.6268      0.00000
     79      15.6680      0.00000
     80      15.7707      0.00000
     81      15.9228      0.00000
     82      15.9478      0.00000
     83      16.0062      0.00000
     84      16.3154      0.00000
     85      16.4442      0.00000
     86      16.4722      0.00000
     87      16.8052      0.00000
     88      16.8418      0.00000

 k-point     5 :       0.5000    0.0000    0.0000
  band No.  band energies     occupation 
      1     -12.2217      2.00000
      2     -12.2217      2.00000
      3     -12.1038      2.00000
      4     -11.8647      2.00000
      5     -11.8647      2.00000
      6     -11.4610      2.00000
      7     -11.2542      2.00000
      8     -11.0758      2.00000
      9     -10.9423      2.00000
     10     -10.9423      2.00000
     11     -10.8735      2.00000
     12     -10.8735      2.00000
     13     -10.8388      2.00000
     14     -10.5815      2.00000
     15     -10.5815      2.00000
     16     -10.4868      2.00000
     17     -10.4868      2.00000
     18     -10.3697      2.00000
     19      -0.5869      2.00000
     20      -0.5869      2.00000
     21      -0.2391      2.00000
     22      -0.0683      2.00000
     23      -0.0683      2.00000
     24       0.1891      2.00000
     25       0.5452      2.00000
     26       0.5452      2.00000
     27       0.8730      2.00000
     28       0.8730      2.00000
     29       1.1784      2.00000
     30       1.2583      2.00000
     31       1.6901      2.00000
     32       1.8102      2.00000
     33       1.8103      2.00000
     34       1.9189      2.00000
     35       2.0947      2.00000
     36       2.1623      2.00000
     37       2.1623      2.00000
     38       2.4400      2.00000
     39       2.4400      2.00000
     40       2.6043      2.00000
     41       3.1989      2.00000
     42       3.1989      2.00000
     43       3.3023      2.00000
     44       3.5051      2.00000
     45       3.5051      2.00000
     46       3.5218      2.00000
     47       3.7060      2.00000
     48       3.7060      2.00000
     49       3.7920      2.00000
     50       3.7920      2.00000
     51       4.0812      2.00000
     52       4.2951      2.00000
     53       4.3041      2.00000
     54       4.3041      2.00000
     55       4.4628      2.00000
     56       4.4632      2.00000
     57       4.4632      2.00000
     58       4.5189      2.00000
     59       4.5922      2.00000
     60       4.5922      2.00000
     61       4.7124      2.00000
     62       4.7124      2.00000
     63       4.7994      2.00000
     64       4.8952      2.00000
     65       5.0716      2.00000
     66       5.0964      2.00000
     67       5.0964      2.00000
     68       5.4049      2.00000
     69       5.4049      2.00000
     70       5.4851      2.00000
     71       5.4851      2.00000
     72       5.5386      2.00000
     73      14.8221      0.00000
     74      14.8221      0.00000
     75      14.9172      0.00000
     76      14.9172      0.00000
     77      15.2044      0.00000
     78      15.2508      0.00000
     79      15.2509      0.00000
     80      15.3002      0.00000
     81      15.4396      0.00000
     82      15.6984      0.00000
     83      15.6987      0.00000
     84      15.9715      0.00000
     85      16.8179      0.00000
     86      16.8489      0.00000
     87      16.8924      0.00000
     88      16.8997      0.00000

 k-point     6 :       0.1250    0.1250    0.0000
  band No.  band energies     occupation 
      1     -13.0165      2.00000
      2     -12.5845      2.00000
      3     -12.5845      2.00000
      4     -11.5773      2.00000
      5     -11.5773      2.00000
      6     -11.0843      2.00000
      7     -10.9852      2.00000
      8     -10.9852      2.00000
      9     -10.8339      2.00000
     10     -10.8022      2.00000
     11     -10.8022      2.00000
     12     -10.7581      2.00000
     13     -10.5738      2.00000
     14     -10.5738      2.00000
     15     -10.4840      2.00000
     16     -10.4737      2.00000
     17     -10.3743      2.00000
     18     -10.3743      2.00000
     19      -0.7818      2.00000
     20      -0.3105      2.00000
     21      -0.0208      2.00000
     22      -0.0208      2.00000
     23       0.1574      2.00000
     24       0.1574      2.00000
     25       0.1657      2.00000
     26       0.2973      2.00000
     27       0.2973      2.00000
     28       0.8636      2.00000
     29       1.2332      2.00000
     30       1.2952      2.00000
     31       1.2952      2.00000
     32       1.3864      2.00000
     33       1.4430      2.00000
     34       1.4430      2.00000
     35       2.0719      2.00000
     36       2.0719      2.00000
     37       2.2026      2.00000
     38       2.2026      2.00000
     39       2.7102      2.00000
     40       2.7102      2.00000
     41       2.7809      2.00000
     42       3.2456      2.00000
     43       3.2856      2.00000
     44       3.2856      2.00000
     45       3.3889      2.00000
     46       3.5771      2.00000
     47       3.5771      2.00000
     48       3.7566      2.00000
     49       3.7566      2.00000
     50       3.9287      2.00000
     51       4.0316      2.00000
     52       4.0316      2.00000
     53       4.1830      2.00000
     54       4.2032      2.00000
[...]
     68       5.3467      2.00000
     69       5.3970      2.00000
     70       5.4911      2.00000
     71       5.4935      2.00000
     72       5.5297      2.00000
     73      14.5520      0.00000
     74      14.5756      0.00000
     75      15.1484      0.00000
     76      15.1635      0.00000
     77      15.2298      0.00000
     78      15.2979      0.00000
     79      15.3763      0.00000
     80      15.4029      0.00000
     81      15.5740      0.00000
     82      15.5864      0.00000
     83      15.8322      0.00000
     84      15.8852      0.00000
     85      16.0159      0.00000
     86      16.0853      0.00000
     87      16.7459      0.00000
     88      16.9423      0.00000

 k-point    34 :       0.2500    0.2500    0.5000
  band No.  band energies     occupation 
      1     -12.3527      2.00000
      2     -12.3527      2.00000
      3     -11.8114      2.00000
      4     -11.8113      2.00000
      5     -11.6002      2.00000
      6     -11.6002      2.00000
      7     -11.2682      2.00000
      8     -11.2682      2.00000
      9     -10.9699      2.00000
     10     -10.9699      2.00000
     11     -10.9308      2.00000
     12     -10.9308      2.00000
     13     -10.6831      2.00000
     14     -10.6831      2.00000
     15     -10.4666      2.00000
     16     -10.4666      2.00000
     17     -10.4455      2.00000
     18     -10.4455      2.00000
     19      -0.1968      2.00000
     20      -0.1968      2.00000
     21      -0.0969      2.00000
     22      -0.0969      2.00000
     23       0.1481      2.00000
     24       0.1481      2.00000
     25       0.2719      2.00000
     26       0.2719      2.00000
     27       0.8493      2.00000
     28       0.8493      2.00000
     29       0.9409      2.00000
     30       0.9409      2.00000
     31       1.7279      2.00000
     32       1.7279      2.00000
     33       1.7995      2.00000
     34       1.7995      2.00000
     35       1.8738      2.00000
     36       1.8738      2.00000
     37       2.3861      2.00000
     38       2.3861      2.00000
     39       2.5438      2.00000
     40       2.5438      2.00000
     41       2.8244      2.00000
     42       2.8244      2.00000
     43       3.4894      2.00000
     44       3.4894      2.00000
     45       3.6548      2.00000
     46       3.6548      2.00000
     47       3.7940      2.00000
     48       3.7940      2.00000
     49       3.9183      2.00000
     50       3.9183      2.00000
     51       4.0976      2.00000
     52       4.0976      2.00000
     53       4.3904      2.00000
     54       4.3904      2.00000
     55       4.4377      2.00000
     56       4.4377      2.00000
     57       4.4932      2.00000
     58       4.4932      2.00000
     59       4.6487      2.00000
     60       4.6487      2.00000
     61       4.8924      2.00000
     62       4.8924      2.00000
     63       4.9729      2.00000
     64       4.9729      2.00000
     65       5.0893      2.00000
     66       5.0894      2.00000
     67       5.2515      2.00000
     68       5.2515      2.00000
     69       5.4676      2.00000
     70       5.4676      2.00000
     71       5.5075      2.00000
     72       5.5075      2.00000
     73      14.3690      0.00000
     74      14.3690      0.00000
     75      15.2421      0.00000
     76      15.2421      0.00000
     77      15.3488      0.00000
     78      15.3488      0.00000
     79      15.6055      0.00000
     80      15.6055      0.00000
     81      15.6353      0.00000
     82      15.6353      0.00000
     83      15.6923      0.00000
     84      15.6923      0.00000
     85      16.1560      0.00000
     86      16.1560      0.00000
     87      16.2753      0.00000
     88      16.2753      0.00000

 k-point    35 :       0.3750    0.2500    0.5000
  band No.  band energies     occupation 
      1     -12.0159      2.00000
      2     -12.0159      2.00000
      3     -11.9849      2.00000
      4     -11.9849      2.00000
      5     -11.7002      2.00000
      6     -11.7002      2.00000
      7     -11.1806      2.00000
      8     -11.1806      2.00000
      9     -11.1520      2.00000
     10     -11.1520      2.00000
     11     -10.9761      2.00000
     12     -10.9761      2.00000
     13     -10.5620      2.00000
     14     -10.5620      2.00000
     15     -10.5497      2.00000
     16     -10.5497      2.00000
     17     -10.4623      2.00000
     18     -10.4623      2.00000
     19      -0.1230      2.00000
     20      -0.1230      2.00000
     21       0.0047      2.00000
     22       0.0048      2.00000
     23       0.1546      2.00000
     24       0.1546      2.00000
     25       0.5926      2.00000
     26       0.5926      2.00000
     27       0.6501      2.00000
     28       0.6501      2.00000
     29       0.8464      2.00000
     30       0.8464      2.00000
     31       1.6743      2.00000
     32       1.6743      2.00000
     33       1.9500      2.00000
     34       1.9500      2.00000
     35       1.9636      2.00000
     36       1.9636      2.00000
     37       2.1810      2.00000
     38       2.1810      2.00000
     39       2.3110      2.00000
     40       2.3110      2.00000
     41       2.4584      2.00000
     42       2.4584      2.00000
     43       3.6943      2.00000
     44       3.6943      2.00000
     45       3.7685      2.00000
     46       3.7685      2.00000
     47       3.8162      2.00000
     48       3.8162      2.00000
     49       4.1180      2.00000
     50       4.1181      2.00000
     51       4.1915      2.00000
     52       4.1915      2.00000
     53       4.2508      2.00000
     54       4.2508      2.00000
     55       4.5535      2.00000
     56       4.5535      2.00000
     57       4.5674      2.00000
     58       4.5674      2.00000
     59       4.5927      2.00000
     60       4.5927      2.00000
     61       4.8952      2.00000
     62       4.8952      2.00000
     63       4.9787      2.00000
     64       4.9787      2.00000
     65       5.0388      2.00000
     66       5.0388      2.00000
     67       5.3600      2.00000
     68       5.3600      2.00000
     69       5.4506      2.00000
     70       5.4506      2.00000
     71       5.4766      2.00000
     72       5.4766      2.00000
     73      14.8914      0.00000
     74      14.8914      0.00000
     75      14.9072      0.00000
     76      14.9072      0.00000
     77      15.0714      0.00000
     78      15.0715      0.00000
     79      15.4173      0.00000
     80      15.4173      0.00000
     81      15.6369      0.00000
     82      15.6369      0.00000
     83      15.6632      0.00000
     84      15.6632      0.00000
     85      15.9290      0.00000
     86      15.9290      0.00000
     87      16.3821      0.00000
     88      16.3825      0.00000


--------------------------------------------------------------------------------------------------------


 soft charge-density along one line, spin component           1
         0         1         2         3         4         5         6         7         8         9
 total charge-density along one line

 pseudopotential strength for first ion, spin component:           1
  8.501  -0.006  -0.000  -0.001   0.000  -0.000  -0.000   0.000
 -0.006   0.000  -0.000  -0.000   0.000   0.000   0.000  -0.000
 -0.000  -0.000   2.008  -0.000  -0.000  -0.028   0.000   0.000
 -0.001  -0.000  -0.000   2.008   0.000   0.000  -0.028  -0.000
  0.000   0.000  -0.000   0.000   2.008   0.000  -0.000  -0.028
 -0.000   0.000  -0.028   0.000   0.000  -0.011   0.000   0.000
 -0.000   0.000   0.000  -0.028  -0.000   0.000  -0.011  -0.000
  0.000  -0.000   0.000  -0.000  -0.028   0.000  -0.000  -0.011
 total augmentation occupancy for first ion, spin component:           1
  0.867  -0.895   0.000   0.045   0.000   0.000  -0.017   0.000
 -0.895   1.291   0.000  -0.010   0.000   0.000   0.005   0.000
  0.000  -0.000   0.803  -0.000  -0.000  -0.289  -0.000  -0.000
  0.045  -0.010  -0.000   0.754   0.000   0.000  -0.264  -0.000
 -0.000   0.000  -0.000  -0.000   0.803   0.000   0.000  -0.289
  0.000  -0.000  -0.289  -0.000   0.000   0.120   0.000  -0.000
 -0.017   0.005   0.000  -0.264  -0.000  -0.000   0.106   0.000
 -0.000  -0.000  -0.000   0.000  -0.289  -0.000  -0.000   0.120


------------------------ aborting loop because EDIFF is reached ----------------------------------------


    CHARGE:  cpu time    0.14: real time    0.14
    FORLOC:  cpu time    0.00: real time    0.00
    FORNL :  cpu time    0.76: real time    0.76
    STRESS:  cpu time    0.94: real time    0.94
    FORCOR:  cpu time    0.01: real time    0.01
    FORHAR:  cpu time    0.00: real time    0.00
    MIXING:  cpu time    0.00: real time    0.00
    OFIELD:  cpu time    0.00: real time    0.00

  FORCE on cell =-STRESS in cart. coord.  units (eV):
  Direction    XX          YY          ZZ          XY          YZ          ZX
  --------------------------------------------------------------------------------------
  Alpha Z   221.81091   221.81091   221.81091
  Ewald   -2349.02248 -2349.02248 -2432.09599     0.00000    -0.00000    -0.00000
  Hartree   740.21063   740.21063   772.36590    -0.00000    -0.00000    -0.00000
  E(xc)    -667.79752  -667.79754  -667.45408    -0.00002     0.00000    -0.00000
  Local    -437.46872  -437.46976  -399.79796    -0.00091    -0.00001    -0.00000
  n-local  -245.18199  -246.22842  -254.03532     1.91792     0.00102    -0.03584
  augment   122.93103   122.93160   124.17510     0.00049     0.00000     0.00000
  Kinetic  2616.55788  2613.50746  2635.03659     1.03518     0.05491     0.17062
  Fock        0.00000     0.00000     0.00000     0.00000     0.00000     0.00000
  -------------------------------------------------------------------------------------
  Total      -0.00893    -0.00893     0.00514     0.00000     0.00000    -0.00000
  in kB      -0.05464    -0.05464     0.03145     0.00000     0.00000    -0.00000
  external pressure =       -0.03 kB  Pullay stress =        0.00 kB


 VOLUME and BASIS-vectors are now :
 -----------------------------------------------------------------------------
  energy-cutoff  :      600.00
  volume of cell :      261.74
      direct lattice vectors                 reciprocal lattice vectors
     4.802776587 -0.000000000  0.000000000     0.208212891  0.120211769 -0.000000000
    -2.401388294  4.159326533  0.000000000     0.000000000  0.240423538 -0.000000000
     0.000000000  0.000000000 13.102626491    -0.000000000 -0.000000000  0.076320576

  length of vectors
     4.802776587  4.802776587 13.102626491     0.240423538  0.240423538  0.076320576


 FORCES acting on ions
    electron-ion (+dipol)            ewald-force                    non-local-force                 convergence-correction
 -----------------------------------------------------------------------------------------------
   -.135E-04 -.118E-04 -.146E+02   -.156E-04 0.444E-05 0.160E+02   0.108E-17 0.347E-17 -.138E+01   0.118E-10 0.102E-10 -.130E-05
   -.140E-04 -.103E-04 0.146E+02   -.900E-05 0.652E-06 -.160E+02   -.651E-18 -.130E-17 0.138E+01   0.144E-10 -.641E-11 0.552E-06
   0.110E-04 0.517E-05 0.146E+02   0.116E-04 -.113E-04 -.160E+02   -.260E-17 -.195E-17 0.138E+01   0.272E-11 0.155E-10 0.103E-05
   0.126E-04 0.623E-05 -.146E+02   0.506E-05 -.746E-05 0.160E+02   0.163E-17 0.217E-17 -.138E+01   -.129E-10 0.931E-11 -.286E-06
   -.749E-05 -.534E-05 -.146E+02   -.377E-05 -.987E-05 0.160E+02   0.651E-18 0.000E+00 -.138E+01   -.236E-11 0.473E-11 -.884E-06
   -.704E-05 -.863E-05 0.146E+02   -.132E-04 0.114E-04 -.160E+02   -.651E-18 -.434E-18 0.138E+01   0.130E-10 -.201E-10 0.143E-05
   0.193E-04 0.773E-05 0.146E+02   0.282E-05 0.218E-05 -.160E+02   -.173E-17 -.217E-17 0.138E+01   0.507E-11 0.857E-13 0.161E-06
   0.203E-04 0.804E-05 -.146E+02   -.138E-04 -.407E-05 0.160E+02   -.542E-18 -.130E-17 -.138E+01   0.666E-12 -.127E-10 -.707E-06
   -.153E-04 -.322E-05 -.146E+02   0.480E-06 0.353E-05 0.160E+02   0.152E-17 0.000E+00 -.138E+01   -.261E-11 0.452E-11 -.201E-06
   -.163E-04 -.225E-05 0.146E+02   0.338E-05 -.140E-04 -.160E+02   -.195E-17 0.000E+00 0.138E+01   -.114E-10 -.567E-11 0.401E-06
   0.139E-04 0.138E-04 0.146E+02   -.667E-05 -.820E-05 -.160E+02   -.434E-18 0.651E-18 0.138E+01   0.509E-11 0.403E-12 0.119E-05
   0.106E-04 0.133E-04 -.146E+02   0.165E-04 -.574E-05 0.160E+02   0.000E+00 -.217E-17 -.138E+01   -.241E-10 0.128E-11 -.139E-05
   -.307E+02 0.288E-04 0.111E-05   0.315E+02 0.368E-04 0.589E-06   -.740E+00 0.909E-13 -.477E-17   -.321E-05 0.254E-09 -.365E-06
   0.307E+02 0.292E-04 0.184E-05   -.315E+02 0.961E-06 -.293E-04   0.740E+00 -.909E-13 0.434E-18   0.320E-05 -.223E-09 0.363E-06
   0.154E+02 -.266E+02 -.262E-05   -.157E+02 0.272E+02 0.344E-04   0.370E+00 -.641E+00 0.434E-18   0.160E-05 -.278E-05 -.365E-06
   -.154E+02 0.266E+02 -.229E-05   0.157E+02 -.272E+02 -.360E-05   -.370E+00 0.641E+00 0.173E-17   -.160E-05 0.277E-05 0.363E-06
   0.154E+02 0.266E+02 0.352E-05   -.157E+02 -.272E+02 0.175E-04   0.370E+00 0.641E+00 -.651E-18   0.160E-05 0.278E-05 -.365E-06
   -.154E+02 -.266E+02 0.290E-05   0.157E+02 0.272E+02 -.165E-04   -.370E+00 -.641E+00 -.130E-17   -.160E-05 -.277E-05 0.363E-06
   -.307E+02 -.856E-05 0.248E-03   0.315E+02 -.132E-04 0.125E-03   -.740E+00 0.909E-13 -.325E-18   -.320E-05 0.783E-09 -.996E-06
   0.307E+02 -.212E-04 -.981E-04   -.315E+02 0.654E-06 -.235E-04   0.740E+00 -.909E-13 -.217E-18   0.321E-05 -.723E-09 0.985E-06
   0.154E+02 -.266E+02 0.253E-03   -.157E+02 0.272E+02 0.119E-03   0.370E+00 -.641E+00 0.260E-17   0.160E-05 -.277E-05 -.996E-06
   -.154E+02 0.266E+02 -.940E-04   0.157E+02 -.272E+02 -.254E-04   -.370E+00 0.641E+00 0.173E-17   -.160E-05 0.278E-05 0.985E-06
   0.154E+02 0.266E+02 0.255E-03   -.157E+02 -.272E+02 0.136E-03   0.370E+00 0.641E+00 -.867E-18   0.160E-05 0.277E-05 -.996E-06
   -.154E+02 -.266E+02 -.995E-04   0.157E+02 0.272E+02 -.188E-04   -.370E+00 -.641E+00 -.217E-17   -.160E-05 -.278E-05 0.985E-06
   -.307E+02 -.866E-04 -.254E-03   0.315E+02 -.115E-04 -.151E-03   -.740E+00 0.909E-13 0.249E-17   -.320E-05 -.108E-08 0.136E-05
   0.307E+02 -.647E-04 0.199E-03   -.315E+02 -.285E-04 0.435E-04   0.740E+00 -.909E-13 -.173E-17   0.320E-05 0.108E-08 -.135E-05
   0.154E+02 -.266E+02 -.250E-03   -.157E+02 0.272E+02 -.157E-03   0.370E+00 -.641E+00 0.217E-17   0.160E-05 -.277E-05 0.136E-05
   -.154E+02 0.266E+02 0.203E-03   0.157E+02 -.272E+02 0.416E-04   -.370E+00 0.641E+00 0.867E-18   -.160E-05 0.277E-05 -.135E-05
   0.154E+02 0.266E+02 -.249E-03   -.157E+02 -.272E+02 -.167E-03   0.370E+00 0.641E+00 -.152E-17   0.160E-05 0.278E-05 0.136E-05
   -.154E+02 -.266E+02 0.212E-03   0.157E+02 0.272E+02 0.368E-04   -.370E+00 -.641E+00 0.434E-18   -.160E-05 -.278E-05 -.135E-05
 -----------------------------------------------------------------------------------------------
   0.579E-03 0.268E-03 0.266E-03   -.657E-13 -.355E-14 -.195E-13   0.111E-15 0.444E-15 -.133E-14   0.244E-10 0.136E-10 0.141E-10


 POSITION                                       TOTAL-FORCE (eV/Angst)
 -----------------------------------------------------------------------------------
      0.00000     -0.00000      4.61502        -0.000000      0.000000     -0.000076
      0.00000     -0.00000      8.48761        -0.000000      0.000000      0.000076
      0.00000     -0.00000      1.93630        -0.000000      0.000000      0.000076
      0.00000     -0.00000     11.16633        -0.000000      0.000000     -0.000076
      2.40139      1.38644      8.98256        -0.000000     -0.000000     -0.000076
      2.40139      1.38644     12.85515        -0.000000     -0.000000      0.000076
      2.40139      1.38644      6.30384        -0.000000      0.000000      0.000076
      2.40139      1.38644      2.43124        -0.000000     -0.000000     -0.000076
     -0.00000      2.77288      0.24747        -0.000000     -0.000000     -0.000076
     -0.00000      2.77288      4.12007        -0.000000     -0.000000      0.000076
     -0.00000      2.77288     10.67138        -0.000000      0.000000      0.000076
     -0.00000      2.77288      6.79879        -0.000000     -0.000000     -0.000076
      1.47018     -0.00000      3.27566        -0.000006      0.000000      0.000000
      3.33259     -0.00000      9.82697         0.000006     -0.000000      0.000000
     -0.73509      1.27322      3.27566         0.000003     -0.000005      0.000000
     -1.66630      2.88611      9.82697        -0.000003      0.000005     -0.000000
      1.66630      2.88611      3.27566         0.000003      0.000005      0.000000
      0.73509      1.27322      9.82697        -0.000003     -0.000005      0.000000
      3.87157      1.38644      7.64320        -0.000006      0.000000     -0.000000
      0.93120      1.38644      1.09189         0.000006     -0.000000      0.000000
      1.66630      2.65966      7.64320         0.000003     -0.000005      0.000000
      3.13648      0.11323      1.09189        -0.000003      0.000005      0.000000
      1.66630      0.11323      7.64320         0.000003      0.000005      0.000000
      3.13648      2.65966      1.09189        -0.000003     -0.000005      0.000000
      1.47018      2.77288     12.01074        -0.000006      0.000000      0.000000
     -1.47018      2.77288      5.45943         0.000006     -0.000000      0.000000
     -0.73509      4.04610     12.01074         0.000003     -0.000005      0.000000
      0.73509      1.49967      5.45943        -0.000003      0.000005     -0.000000
     -0.73509      1.49967     12.01074         0.000003      0.000005      0.000000
      0.73509      4.04610      5.45943        -0.000003     -0.000005     -0.000000
 -----------------------------------------------------------------------------------
    total drift:                                0.000579      0.000268      0.000266


--------------------------------------------------------------------------------------------------------



  FREE ENERGIE OF THE ION-ELECTRON SYSTEM (eV)
  ---------------------------------------------------
  free  energy   TOTEN  =      -226.54457260 eV

  energy  without entropy=     -226.54457260  energy(sigma->0) =     -226.54457260

 d Force =-0.9650045E-10[-0.169E-08, 0.150E-08]  d Energy =-0.1132796E-07 0.112E-07
 d Force =-0.2973623E-03[-0.297E-03,-0.297E-03]  d Ewald  =-0.2973623E-03 0.197E-10


--------------------------------------------------------------------------------------------------------


    POTLOK:  cpu time    0.02: real time    0.02


--------------------------------------------------------------------------------------------------------




--------------------------------------------------------------------------------------------------------


  
 reached required accuracy - stopping structural energy minimisation
     LOOP+:  cpu time   13.30: real time   13.37
    4ORBIT:  cpu time    0.00: real time    0.00

 total amount of memory used by VASP on root node    37771. kBytes
========================================================================

   base      :      30000. kBytes
   nonl-proj :       1825. kBytes
   fftplans  :        475. kBytes
   grid      :        735. kBytes
   one-center:          6. kBytes
   wavefun   :       4730. kBytes

  
  
 General timing and accounting informations for this job:
 ========================================================
  
                  Total CPU time used (sec):       89.498
                            User time (sec):       87.925
                          System time (sec):        1.572
                         Elapsed time (sec):       90.403
  
                   Maximum memory used (kb):       32436.
                   Average memory used (kb):           0.
  
                          Minor page faults:         8974
                          Major page faults:            0
                 Voluntary context switches:        16146
