AlO                                     
           1
     4.802777   -0.000000   -0.000000
    -2.401388    4.159327   -0.000000
    -0.000000    0.000000   13.102626
   Al   O 
  12  18
Direct configuration=     1
   0.00000000  0.00000000  0.35221672
   0.00000000  0.00000000  0.64778325
   0.00000000  0.00000000  0.14778328
   0.00000000  0.00000000  0.85221675
   0.66666669  0.33333334  0.68555007
   0.66666669  0.33333334  0.98111662
   0.66666669  0.33333334  0.48111662
   0.66666669  0.33333334  0.18555001
   0.33333334  0.66666669  0.01888338
   0.33333334  0.66666669  0.31444993
   0.33333334  0.66666669  0.81444993
   0.33333334  0.66666669  0.51888338
   0.30611761  0.00000000  0.25000000
   0.69388239  0.00000000  0.75000000
   0.00000000  0.30611761  0.25000000
   0.00000000  0.69388239  0.75000000
   0.69388239  0.69388239  0.25000000
   0.30611761  0.30611761  0.75000000
   0.97278430  0.33333334  0.58333331
   0.36054904  0.33333334  0.08333334
   0.66666669  0.63945093  0.58333331
   0.66666669  0.02721572  0.08333334
   0.36054904  0.02721572  0.58333331
   0.97278430  0.63945093  0.08333334
   0.63945093  0.66666669  0.91666669
   0.02721572  0.66666669  0.41666666
   0.33333334  0.97278430  0.91666669
   0.33333334  0.36054904  0.41666666
   0.02721572  0.36054904  0.91666669
   0.63945093  0.97278430  0.41666666
Direct configuration=     2
   0.00000000 -0.00000000  0.35221830
   0.00000000 -0.00000000  0.64778167
   0.00000000 -0.00000000  0.14778170
   0.00000000 -0.00000000  0.85221833
   0.66666669  0.33333334  0.68555164
   0.66666669  0.33333334  0.98111505
   0.66666669  0.33333334  0.48111505
   0.66666669  0.33333334  0.18555158
   0.33333334  0.66666669  0.01888495
   0.33333334  0.66666669  0.31444836
   0.33333334  0.66666669  0.81444836
   0.33333334  0.66666669  0.51888495
   0.30611503 -0.00000000  0.25000000
   0.69388497 -0.00000000  0.75000000
  -0.00000000  0.30611503  0.25000000
   0.00000000  0.69388497  0.75000000
   0.69388497  0.69388497  0.25000000
   0.30611503  0.30611503  0.75000000
   0.97278172  0.33333334  0.58333331
   0.36055163  0.33333334  0.08333334
   0.66666669  0.63944835  0.58333331
   0.66666669  0.02721830  0.08333334
   0.36055163  0.02721830  0.58333331
   0.97278172  0.63944835  0.08333334
   0.63944835  0.66666669  0.91666669
   0.02721830  0.66666669  0.41666666
   0.33333334  0.97278172  0.91666669
   0.33333334  0.36055163  0.41666666
   0.02721830  0.36055163  0.91666669
   0.63944835  0.97278172  0.41666666
Direct configuration=     3
   0.00000000 -0.00000000  0.35222120
   0.00000000 -0.00000000  0.64777877
   0.00000000 -0.00000000  0.14777880
   0.00000000 -0.00000000  0.85222123
   0.66666669  0.33333334  0.68555454
   0.66666669  0.33333334  0.98111214
   0.66666669  0.33333334  0.48111214
   0.66666669  0.33333334  0.18555449
   0.33333334  0.66666669  0.01888786
   0.33333334  0.66666669  0.31444546
   0.33333334  0.66666669  0.81444546
   0.33333334  0.66666669  0.51888786
   0.30611026 -0.00000000  0.25000000
   0.69388974 -0.00000000  0.75000000
  -0.00000000  0.30611026  0.25000000
   0.00000000  0.69388974  0.75000000
   0.69388974  0.69388974  0.25000000
   0.30611026  0.30611026  0.75000000
   0.97277695  0.33333334  0.58333331
   0.36055640  0.33333334  0.08333334
   0.66666669  0.63944357  0.58333331
   0.66666669  0.02722307  0.08333334
   0.36055640  0.02722307  0.58333331
   0.97277695  0.63944357  0.08333334
   0.63944357  0.66666669  0.91666669
   0.02722307  0.66666669  0.41666666
   0.33333334  0.97277695  0.91666669
   0.33333334  0.36055640  0.41666666
   0.02722307  0.36055640  0.91666669
   0.63944357  0.97277695  0.41666666
Direct configuration=     4
   0.00000000 -0.00000000  0.35222049
   0.00000000 -0.00000000  0.64777948
   0.00000000 -0.00000000  0.14777951
   0.00000000 -0.00000000  0.85222052
   0.66666669  0.33333334  0.68555383
   0.66666669  0.33333334  0.98111285
   0.66666669  0.33333334  0.48111285
   0.66666669  0.33333334  0.18555377
   0.33333334  0.66666669  0.01888715
   0.33333334  0.66666669  0.31444617
   0.33333334  0.66666669  0.81444617
   0.33333334  0.66666669  0.51888715
   0.30611143 -0.00000000  0.25000000
   0.69388857 -0.00000000  0.75000000
  -0.00000000  0.30611143  0.25000000
   0.00000000  0.69388857  0.75000000
   0.69388857  0.69388857  0.25000000
   0.30611143  0.30611143  0.75000000
   0.97277812  0.33333334  0.58333331
   0.36055523  0.33333334  0.08333334
   0.66666669  0.63944474  0.58333331
   0.66666669  0.02722191  0.08333334
   0.36055523  0.02722191  0.58333331
   0.97277812  0.63944474  0.08333334
   0.63944474  0.66666669  0.91666669
   0.02722191  0.66666669  0.41666666
   0.33333334  0.97277812  0.91666669
   0.33333334  0.36055523  0.41666666
   0.02722191  0.36055523  0.91666669
   0.63944474  0.97277812  0.41666666
Direct configuration=     5
   0.00000000 -0.00000000  0.35222064
   0.00000000 -0.00000000  0.64777933
   0.00000000 -0.00000000  0.14777936
   0.00000000 -0.00000000  0.85222067
   0.66666669  0.33333334  0.68555398
   0.66666669  0.33333334  0.98111270
   0.66666669  0.33333334  0.48111270
   0.66666669  0.33333334  0.18555393
   0.33333334  0.66666669  0.01888730
   0.33333334  0.66666669  0.31444602
   0.33333334  0.66666669  0.81444602
   0.33333334  0.66666669  0.51888730
   0.30611118 -0.00000000  0.25000000
   0.69388882 -0.00000000  0.75000000
  -0.00000000  0.30611118  0.25000000
   0.00000000  0.69388882  0.75000000
   0.69388882  0.69388882  0.25000000
   0.30611118  0.30611118  0.75000000
   0.97277787  0.33333334  0.58333331
   0.36055548  0.33333334  0.08333334
   0.66666669  0.63944449  0.58333331
   0.66666669  0.02722216  0.08333334
   0.36055548  0.02722216  0.58333331
   0.97277787  0.63944449  0.08333334
   0.63944449  0.66666669  0.91666669
   0.02722216  0.66666669  0.41666666
   0.33333334  0.97277787  0.91666669
   0.33333334  0.36055548  0.41666666
   0.02722216  0.36055548  0.91666669
   0.63944449  0.97277787  0.41666666
