       N       E                     dE             d eps       ncg     rms          rms(c)
DAV:   1     0.265427592854E+02    0.26543E+02   -0.84063E+03  4056   0.796E+02
DAV:   2    -0.219762587118E+02   -0.48519E+02   -0.44659E+02  4948   0.871E+01
DAV:   3    -0.242710224703E+02   -0.22948E+01   -0.21923E+01  5168   0.167E+01
DAV:   4    -0.243279239150E+02   -0.56901E-01   -0.56693E-01  5400   0.312E+00
DAV:   5    -0.243296735814E+02   -0.17497E-02   -0.17494E-02  5526   0.547E-01    0.275E+00
RMM:   6    -0.243282835058E+02    0.13901E-02   -0.81670E-03  4056   0.627E-01    0.177E+00
RMM:   7    -0.243320201977E+02   -0.37367E-02   -0.31262E-02  4056   0.132E+00    0.118E-01
RMM:   8    -0.243318795188E+02    0.14068E-03   -0.32481E-04  4061   0.116E-01    0.325E-02
RMM:   9    -0.243318991511E+02   -0.19632E-04   -0.51623E-05  4566   0.391E-02    0.219E-03
RMM:  10    -0.243319033813E+02   -0.42301E-05   -0.34487E-06  3253   0.930E-03    0.727E-04
RMM:  11    -0.243319046259E+02   -0.12447E-05   -0.47433E-07  2509   0.407E-03    0.172E-04
RMM:  12    -0.243319048513E+02   -0.22540E-06   -0.20639E-07  2263   0.273E-03
   1 F= -.24331905E+02 E0= -.24324662E+02  d E =-.243319E+02
       N       E                     dE             d eps       ncg     rms          rms(c)
DAV:   1    -0.243320525019E+02   -0.14788E-03   -0.13145E-04  4872   0.647E-02    0.189E-03
RMM:   2    -0.243320522628E+02    0.23902E-06   -0.18012E-06  2405   0.802E-03    0.125E-03
RMM:   3    -0.243320527698E+02   -0.50694E-06   -0.48477E-07  2221   0.450E-03    0.238E-04
RMM:   4    -0.243320530315E+02   -0.26168E-06   -0.18501E-07  1944   0.265E-03
   2 F= -.24332053E+02 E0= -.24324812E+02  d E =-.148180E-03
       N       E                     dE             d eps       ncg     rms          rms(c)
DAV:   1    -0.243324517187E+02   -0.39895E-03   -0.11871E-03  4304   0.194E-01    0.566E-03
RMM:   2    -0.243324554918E+02   -0.37732E-05   -0.22280E-05  4051   0.261E-02    0.180E-04
RMM:   3    -0.243324554993E+02   -0.74844E-08   -0.22615E-06  2707   0.851E-03    0.163E-04
RMM:   4    -0.243324553390E+02    0.16032E-06   -0.71774E-07  2097   0.520E-03
   3 F= -.24332455E+02 E0= -.24325220E+02  d E =-.550488E-03
       N       E                     dE             d eps       ncg     rms          rms(c)
DAV:   1    -0.243330591056E+02   -0.60361E-03   -0.47499E-03  4100   0.388E-01    0.113E-02
RMM:   2    -0.243330731080E+02   -0.14002E-04   -0.88883E-05  4056   0.523E-02    0.224E-04
RMM:   3    -0.243330743157E+02   -0.12077E-05   -0.14142E-05  4706   0.171E-02    0.304E-04
RMM:   4    -0.243330743611E+02   -0.45402E-07   -0.25669E-07  1520   0.243E-03
   4 F= -.24333074E+02 E0= -.24325851E+02  d E =-.116951E-02
       N       E                     dE             d eps       ncg     rms          rms(c)
DAV:   1    -0.243335191231E+02   -0.44481E-03   -0.18902E-02  4068   0.776E-01    0.228E-02
RMM:   2    -0.243335738022E+02   -0.54679E-04   -0.33935E-04  4056   0.102E-01    0.185E-03
RMM:   3    -0.243335789582E+02   -0.51560E-05   -0.54412E-05  5097   0.331E-02    0.999E-04
RMM:   4    -0.243335789983E+02   -0.40095E-07   -0.41180E-07  2475   0.277E-03
   5 F= -.24333579E+02 E0= -.24326379E+02  d E =-.167415E-02
       N       E                     dE             d eps       ncg     rms          rms(c)
DAV:   1    -0.243336886512E+02   -0.10969E-03   -0.17626E-03  4306   0.194E-01    0.832E-03
RMM:   2    -0.243336908010E+02   -0.21499E-05   -0.10283E-04  4056   0.454E-02    0.375E-03
RMM:   3    -0.243336909168E+02   -0.11574E-06   -0.82055E-06  3893   0.134E-02    0.827E-03
RMM:   4    -0.243336901898E+02    0.72693E-06   -0.11104E-06  2265   0.498E-03
   6 F= -.24333690E+02 E0= -.24326495E+02  d E =-.111192E-03
       N       E                     dE             d eps       ncg     rms          rms(c)
DAV:   1    -0.243336971253E+02   -0.62085E-05   -0.22481E-04  4402   0.688E-02    0.433E-03
RMM:   2    -0.243336976085E+02   -0.48325E-06   -0.15851E-05  4054   0.170E-02    0.367E-03
RMM:   3    -0.243336977899E+02   -0.18141E-06   -0.73190E-07  2135   0.512E-03    0.250E-03
RMM:   4    -0.243336978669E+02   -0.76961E-07   -0.30050E-07  2032   0.340E-03
   7 F= -.24333698E+02 E0= -.24326504E+02  d E =-.118869E-03
       N       E                     dE             d eps       ncg     rms          rms(c)
DAV:   1    -0.243336978839E+02   -0.93947E-07   -0.22890E-07  2592   0.225E-03    0.203E-03
RMM:   2    -0.243336978915E+02   -0.76301E-08   -0.52643E-08  1381   0.130E-03    0.255E-03
RMM:   3    -0.243336979349E+02   -0.43421E-07   -0.57175E-26   110   0.772E-04    0.198E-03
RMM:   4    -0.243336978793E+02    0.55627E-07   -0.11106E-08   348   0.106E-03
   8 F= -.24333698E+02 E0= -.24326504E+02  d E =-.118881E-03
       N       E                     dE             d eps       ncg     rms          rms(c)
DAV:   1    -0.243336978872E+02    0.47747E-07   -0.20324E-07  2118   0.153E-03    0.219E-04
RMM:   2    -0.243336978869E+02    0.30753E-09   -0.43350E-14   101   0.644E-04    0.329E-04
RMM:   3    -0.243336978909E+02   -0.40406E-08    0.00000E+00    29   0.644E-04    0.328E-04
RMM:   4    -0.243336978993E+02   -0.83674E-08    0.00000E+00    28   0.647E-04
   9 F= -.24333698E+02 E0= -.24326504E+02  d E =-.118901E-03
       N       E                     dE             d eps       ncg     rms          rms(c)
DAV:   1    -0.243336978626E+02    0.28338E-07   -0.27023E-07  2080   0.242E-03    0.253E-04
RMM:   2    -0.243336978569E+02    0.56884E-08   -0.41202E-09   361   0.917E-04    0.289E-04
RMM:   3    -0.243336978579E+02   -0.99674E-09    0.00000E+00    27   0.867E-04    0.286E-04
RMM:   4    -0.243336978688E+02   -0.10926E-07   -0.32392E-10    30   0.865E-04
  10 F= -.24333698E+02 E0= -.24326504E+02  d E =-.118871E-03
       N       E                     dE             d eps       ncg     rms          rms(c)
DAV:   1    -0.243336978846E+02   -0.26750E-07   -0.12438E-07  2058   0.186E-03    0.414E-04
RMM:   2    -0.243336978782E+02    0.64630E-08    0.00000E+00    37   0.434E-04    0.270E-04
RMM:   3    -0.243336978978E+02   -0.19639E-07    0.00000E+00    20   0.422E-04    0.312E-04
RMM:   4    -0.243336979425E+02   -0.44698E-07    0.00000E+00    19   0.451E-04
  11 F= -.24333698E+02 E0= -.24326504E+02  d E =-.118944E-03
       N       E                     dE             d eps       ncg     rms          rms(c)
DAV:   1    -0.243336979411E+02   -0.43284E-07   -0.16011E-08  2068   0.474E-04    0.268E-04
RMM:   2    -0.243336979298E+02    0.11262E-07    0.00000E+00    53   0.256E-04    0.143E-04
RMM:   3    -0.243336979309E+02   -0.10940E-08    0.00000E+00    22   0.253E-04    0.182E-04
RMM:   4    -0.243336979251E+02    0.57862E-08    0.00000E+00    19   0.260E-04
  12 F= -.24333698E+02 E0= -.24326504E+02  d E =-.118927E-03
       N       E                     dE             d eps       ncg     rms          rms(c)
DAV:   1    -0.243336979171E+02    0.13796E-07   -0.16283E-08  2050   0.658E-04    0.402E-05
RMM:   2    -0.243336979157E+02    0.13793E-08    0.00000E+00    43   0.284E-04    0.538E-06
RMM:   3    -0.243336979167E+02   -0.96705E-09    0.00000E+00    14   0.287E-04    0.168E-05
RMM:   4    -0.243336979158E+02    0.89780E-09    0.00000E+00    14   0.286E-04
  13 F= -.24333698E+02 E0= -.24326504E+02  d E =-.118918E-03
       N       E                     dE             d eps       ncg     rms          rms(c)
DAV:   1    -0.243336979190E+02   -0.22911E-08   -0.91357E-09  2054   0.499E-04    0.220E-05
RMM:   2    -0.243336979188E+02    0.21893E-09    0.00000E+00    32   0.157E-04    0.917E-06
RMM:   3    -0.243336979187E+02    0.11634E-09    0.00000E+00    15   0.157E-04    0.563E-06
RMM:   4    -0.243336979189E+02   -0.26494E-09    0.00000E+00    14   0.157E-04
  14 F= -.24333698E+02 E0= -.24326504E+02  d E =-.118921E-03
       N       E                     dE             d eps       ncg     rms          rms(c)
DAV:   1    -0.243336979214E+02   -0.27294E-08   -0.15237E-09  2052   0.261E-04    0.549E-06
RMM:   2    -0.243336979208E+02    0.55351E-09    0.00000E+00    26   0.744E-05    0.554E-06
RMM:   3    -0.243336979210E+02   -0.16243E-09    0.00000E+00    13   0.743E-05    0.152E-06
RMM:   4    -0.243336979210E+02    0.36252E-10    0.00000E+00    12   0.742E-05
  15 F= -.24333698E+02 E0= -.24326504E+02  d E =-.118923E-03
       N       E                     dE             d eps       ncg     rms          rms(c)
DAV:   1    -0.243336981656E+02   -0.24457E-06   -0.26478E-06  3238   0.931E-03    0.294E-04
RMM:   2    -0.243336981659E+02   -0.34350E-09   -0.68241E-08  1689   0.167E-03    0.957E-05
RMM:   3    -0.243336981723E+02   -0.64071E-08   -0.11715E-09    51   0.979E-04    0.192E-05
RMM:   4    -0.243336981730E+02   -0.64436E-09   -0.95362E-11    14   0.970E-04
  16 F= -.24333698E+02 E0= -.24326504E+02  d E =-.252001E-06
       N       E                     dE             d eps       ncg     rms          rms(c)
DAV:   1    -0.243336982553E+02   -0.82951E-07   -0.10659E-05  4076   0.180E-02    0.526E-04
RMM:   2    -0.243336982810E+02   -0.25722E-07   -0.18045E-07  2014   0.269E-03    0.316E-05
RMM:   3    -0.243336982800E+02    0.10043E-08   -0.36735E-08  1517   0.132E-03    0.199E-05
RMM:   4    -0.243336982811E+02   -0.11524E-08   -0.10801E-09   349   0.972E-04
  17 F= -.24333698E+02 E0= -.24326505E+02  d E =-.360177E-06
