 vasp.5.3.5 31Mar14 (build Nov 12 2015 11:19:23) complex                         
 executed on           CrayXC_GCC date 2016.07.03  13:57:04
 running on   96 total cores
 distrk:  each k-point on   24 cores,    4 groups
 distr:  one band on NCORES_PER_BAND=  12 cores,    2 groups


--------------------------------------------------------------------------------------------------------


 INCAR:
 POTCAR:   PAW_GGA Mg 05Jan2001                   

 ----------------------------------------------------------------------------- 
|                                                                             |
|           W    W    AA    RRRRR   N    N  II  N    N   GGGG   !!!           |
|           W    W   A  A   R    R  NN   N  II  NN   N  G    G  !!!           |
|           W    W  A    A  R    R  N N  N  II  N N  N  G       !!!           |
|           W WW W  AAAAAA  RRRRR   N  N N  II  N  N N  G  GGG   !            |
|           WW  WW  A    A  R   R   N   NN  II  N   NN  G    G                |
|           W    W  A    A  R    R  N    N  II  N    N   GGGG   !!!           |
|                                                                             |
|      You have enabled k-point parallelism (KPAR>1).                         |
|      This developmental code was originally  written by Paul Kent at ORNL,  |
|      and carefully double checked in Vienna.                                |
|      GW as well as linear response parallelism added by Martijn Marsman     |
|      and Georg Kresse.                                                      |
|      Carefully verify results versus KPAR=1.                                |
|      Report problems to Paul Kent and Vienna.                               |
|                                                                             |
 ----------------------------------------------------------------------------- 

 POTCAR:   PAW_GGA Mg 05Jan2001                   
   VRHFIN =Mg: s2p0                                                             
   LEXCH  = 91                                                                  
   EATOM  =    23.0823 eV,    1.6965 Ry                                         
                                                                                
   TITEL  = PAW_GGA Mg 05Jan2001                                                
   LULTRA =        F    use ultrasoft PP ?                                      
   IUNSCR =        1    unscreen: 0-lin 1-nonlin 2-no                           
   RPACOR =    2.000    partial core radius                                     
   POMASS =   24.305; ZVAL   =    2.000    mass and valenz                      
   RCORE  =    2.000    outmost cutoff radius                                   
   RWIGS  =    2.880; RWIGS  =    1.524    wigner-seitz radius (au A)           
   ENMAX  =  210.083; ENMIN  =  157.562 eV                                      
   ICORE  =        2    local potential                                         
   LCOR   =        T    correct aug charges                                     
   LPAW   =        T    paw PP                                                  
   EAUG   =  274.554                                                            
   DEXC   =    -.096                                                            
   RMAX   =    3.181    core radius for proj-oper                               
   RAUG   =    1.300    factor for augmentation sphere                          
   RDEP   =    2.025    core radius for depl-charge                             
   QCUT   =   -3.929; QGAM   =    7.859    optimization parameters              
                                                                                
   Description                                                                  
     l     E      TYP  RCUT    TYP  RCUT                                        
     0   .000     23  2.000                                                     
     0  2.000     23  2.000                                                     
     1   .000     23  2.000                                                     
     1  2.000     23  2.000                                                     
     2   .000     23  2.000                                                     
  local pseudopotential read in
  partial core-charges read in
  atomic valenz-charges read in
  non local Contribution for L=           0  read in
    real space projection operators read in
  non local Contribution for L=           0  read in
    real space projection operators read in
  non local Contribution for L=           1  read in
    real space projection operators read in
  non local Contribution for L=           1  read in
    real space projection operators read in
    PAW grid and wavefunctions read in

   number of l-projection  operators is LMAX  =           4
   number of lm-projection operators is LMMAX =           8

 PAW_GGA Mg 05Jan2001                   :
 energy of atom  1       EATOM=  -23.0823
 kinetic energy error for atom=    0.0001 (will be added to EATOM!!)


 POSCAR: Mg                                      
  positions in direct lattice
  No initial velocities read in
 exchange correlation table for  LEXCH =        7
   RHO(1)=    0.500       N(1)  =     2000
   RHO(2)=  100.500       N(2)  =     4000



--------------------------------------------------------------------------------------------------------


 ion  position               nearest neighbor table
   1  0.167  0.333  0.125-  12 3.14  13 3.17   9 3.17  11 3.20  14 3.20  10 3.20   7 3.22   7 3.22
                             3 3.22   3 3.22   5 3.27   5 3.27
   2  0.167  0.333  0.625-  11 3.14  14 3.17  10 3.17  12 3.20  13 3.20   9 3.20   8 3.22   8 3.22
                             4 3.22   4 3.22   6 3.27   6 3.27
   3  0.167  0.833  0.125-  10 3.14  15 3.17  11 3.17   9 3.20  16 3.20  12 3.20   5 3.22   5 3.22
                             1 3.22   1 3.22   7 3.27   7 3.27
   4  0.167  0.833  0.625-   9 3.14  16 3.17  12 3.17  10 3.20  15 3.20  11 3.20   6 3.22   6 3.22
                             2 3.22   2 3.22   8 3.27   8 3.27
   5  0.667  0.333  0.125-  16 3.14   9 3.17  13 3.17  15 3.20  10 3.20  14 3.20   3 3.22   3 3.22
                             7 3.22   7 3.22   1 3.27   1 3.27
   6  0.667  0.333  0.625-  15 3.14  10 3.17  14 3.17  16 3.20   9 3.20  13 3.20   4 3.22   4 3.22
                             8 3.22   8 3.22   2 3.27   2 3.27
   7  0.667  0.833  0.125-  14 3.14  11 3.17  15 3.17  13 3.20  12 3.20  16 3.20   1 3.22   1 3.22
                             5 3.22   5 3.22   3 3.27   3 3.27
   8  0.667  0.833  0.625-  13 3.14  12 3.17  16 3.17  14 3.20  11 3.20  15 3.20   2 3.22   2 3.22
                             6 3.22   6 3.22   4 3.27   4 3.27
   9  0.333  0.167  0.375-   4 3.14   5 3.17   1 3.17   3 3.20   6 3.20   2 3.20  15 3.22  15 3.22
                            11 3.22  11 3.22  13 3.27  13 3.27
  10  0.333  0.167  0.875-   3 3.14   6 3.17   2 3.17   4 3.20   5 3.20   1 3.20  16 3.22  16 3.22
                            12 3.22  12 3.22  14 3.27  14 3.27
  11  0.333  0.667  0.375-   2 3.14   7 3.17   3 3.17   1 3.20   8 3.20   4 3.20  13 3.22  13 3.22
                             9 3.22   9 3.22  15 3.27  15 3.27
  12  0.333  0.667  0.875-   1 3.14   8 3.17   4 3.17   2 3.20   7 3.20   3 3.20  14 3.22  14 3.22
                            10 3.22  10 3.22  16 3.27  16 3.27
  13  0.833  0.167  0.375-   8 3.14   1 3.17   5 3.17   7 3.20   2 3.20   6 3.20  11 3.22  11 3.22
                            15 3.22  15 3.22   9 3.27   9 3.27
  14  0.833  0.167  0.875-   7 3.14   2 3.17   6 3.17   8 3.20   1 3.20   5 3.20  12 3.22  12 3.22
                            16 3.22  16 3.22  10 3.27  10 3.27
  15  0.833  0.667  0.375-   6 3.14   3 3.17   7 3.17   5 3.20   4 3.20   8 3.20   9 3.22   9 3.22
                            13 3.22  13 3.22  11 3.27  11 3.27
  16  0.833  0.667  0.875-   5 3.14   4 3.17   8 3.17   6 3.20   3 3.20   7 3.20  10 3.22  10 3.22
                            14 3.22  14 3.22  12 3.27  12 3.27

  LATTYP: Found a base centered monoclinic cell.
 ALAT       =    11.0977341182
 B/A-ratio  =     0.5888673420
 C/A-ratio  =     2.2215715234
 COS(beta)  =    -0.7829516975
  
  Lattice vectors:
  
 A1 = (  -3.2675503091,   5.5485896495,   0.0554858965)
 A2 = (   3.2675428839,   5.5485896237,   0.0554858962)
 A3 = (   0.0000148505, -22.2973382752, -10.5199164830)


Analysis of symmetry for initial positions (statically):
=====================================================================
 Subroutine PRICEL returns following result:
 
  LATTYP: Found a base centered monoclinic cell.
 ALAT       =     5.5488670591
 B/A-ratio  =     0.5888673244
 C/A-ratio  =     2.2215715234
 COS(beta)  =    -0.7829517015
  
  Lattice vectors:
  
 A1 = (  -1.6337751545,   2.7742948247,   0.0277429482)
 A2 = (   1.6337713439,   2.7742948118,   0.0277429481)
 A3 = (   0.0000076213, -11.1486691376,  -5.2599582415)
 
   8 primitive cells build up your supercell.
 

 Routine SETGRP: Setting up the symmetry group for a 
 base centered monoclinic supercell.


 Subroutine GETGRP returns: Found  4 space group operations
 (whereof  4 operations were pure point group operations)
 out of a pool of  4 trial point group operations.


The static configuration has the point symmetry C_2h.


Analysis of symmetry for dynamics (positions and initial velocities):
=====================================================================
 Subroutine PRICEL returns following result:
 
  LATTYP: Found a base centered monoclinic cell.
 ALAT       =     5.5488670591
 B/A-ratio  =     0.5888673244
 C/A-ratio  =     2.2215715234
 COS(beta)  =    -0.7829517015
  
  Lattice vectors:
  
 A1 = (  -1.6337751545,   2.7742948247,   0.0277429482)
 A2 = (   1.6337713439,   2.7742948118,   0.0277429481)
 A3 = (   0.0000076213, -11.1486691376,  -5.2599582415)
 
   8 primitive cells build up your supercell.
 

 Routine SETGRP: Setting up the symmetry group for a 
 base centered monoclinic supercell.


 Subroutine GETGRP returns: Found  4 space group operations
 (whereof  4 operations were pure point group operations)
 out of a pool of  4 trial point group operations.


The dynamic configuration has the point symmetry C_2h.


 KPOINTS: Automatic                               

Automatic generation of k-mesh.
Space group operators:
 irot       det(A)        alpha          n_x          n_y          n_z        tau_x        tau_y        tau_z
    1     1.000000     0.000002     1.000000     0.000000     0.000000    -0.000000    -0.000000    -0.000000
    2    -1.000000     0.000002     1.000000     0.000000     0.000000    -0.000000    -0.000000    -0.000000
    3     1.000000   179.999999     1.000000     0.000001    -0.000000    -0.000000    -0.000000    -0.000000
    4    -1.000000   179.999999     1.000000     0.000001    -0.000000    -0.000000    -0.000000    -0.000000
 
 Subroutine IBZKPT returns following result:
 ===========================================
 
 Found     78 irreducible k-points:
 
 Following reciprocal coordinates:
            Coordinates               Weight
  0.000000  0.000000  0.000000      1.000000
  0.125000  0.000000  0.000000      4.000000
  0.250000  0.000000  0.000000      4.000000
  0.375000  0.000000  0.000000      4.000000
  0.500000  0.000000  0.000000      2.000000
  0.000000  0.125000  0.000000      2.000000
  0.125000  0.125000  0.000000      4.000000
  0.250000  0.125000  0.000000      4.000000
  0.375000  0.125000  0.000000      4.000000
  0.500000  0.125000  0.000000      4.000000
 -0.375000  0.125000  0.000000      4.000000
 -0.250000  0.125000  0.000000      2.000000
  0.000000  0.250000  0.000000      2.000000
  0.125000  0.250000  0.000000      4.000000
  0.250000  0.250000  0.000000      4.000000
  0.375000  0.250000  0.000000      4.000000
  0.500000  0.250000  0.000000      2.000000
  0.000000  0.375000  0.000000      2.000000
  0.125000  0.375000  0.000000      4.000000
  0.250000  0.375000  0.000000      2.000000
  0.000000  0.500000  0.000000      1.000000
  0.000000  0.000000  0.250000      2.000000
  0.125000  0.000000  0.250000      4.000000
  0.250000  0.000000  0.250000      4.000000
  0.375000  0.000000  0.250000      4.000000
  0.500000  0.000000  0.250000      4.000000
 -0.375000  0.000000  0.250000      4.000000
 -0.250000  0.000000  0.250000      4.000000
 -0.125000  0.000000  0.250000      4.000000
  0.000000  0.125000  0.250000      2.000000
  0.125000  0.125000  0.250000      4.000000
  0.250000  0.125000  0.250000      4.000000
  0.375000  0.125000  0.250000      4.000000
  0.500000  0.125000  0.250000      4.000000
 -0.375000  0.125000  0.250000      4.000000
 -0.250000  0.125000  0.250000      4.000000
  0.000000  0.250000  0.250000      2.000000
  0.125000  0.250000  0.250000      4.000000
  0.250000  0.250000  0.250000      4.000000
  0.375000  0.250000  0.250000      4.000000
  0.500000  0.250000  0.250000      4.000000
 -0.375000  0.250000  0.250000      4.000000
  0.000000  0.375000  0.250000      2.000000
  0.125000  0.375000  0.250000      4.000000
  0.250000  0.375000  0.250000      4.000000
  0.375000  0.375000  0.250000      4.000000
  0.500000  0.375000  0.250000      4.000000
  0.000000  0.500000  0.250000      2.000000
  0.125000  0.500000  0.250000      4.000000
  0.250000  0.500000  0.250000      4.000000
  0.375000  0.500000  0.250000      4.000000
  0.000000 -0.375000  0.250000      2.000000
  0.125000 -0.375000  0.250000      4.000000
  0.250000 -0.375000  0.250000      4.000000
  0.000000 -0.250000  0.250000      2.000000
  0.125000 -0.250000  0.250000      4.000000
  0.000000 -0.125000  0.250000      2.000000
  0.000000  0.000000  0.500000      1.000000
  0.125000  0.000000  0.500000      4.000000
  0.250000  0.000000  0.500000      4.000000
  0.375000  0.000000  0.500000      4.000000
  0.500000  0.000000  0.500000      2.000000
  0.000000  0.125000  0.500000      2.000000
  0.125000  0.125000  0.500000      4.000000
  0.250000  0.125000  0.500000      4.000000
  0.375000  0.125000  0.500000      4.000000
  0.500000  0.125000  0.500000      4.000000
 -0.375000  0.125000  0.500000      4.000000
 -0.250000  0.125000  0.500000      2.000000
  0.000000  0.250000  0.500000      2.000000
  0.125000  0.250000  0.500000      4.000000
  0.250000  0.250000  0.500000      4.000000
  0.375000  0.250000  0.500000      4.000000
  0.500000  0.250000  0.500000      2.000000
  0.000000  0.375000  0.500000      2.000000
  0.125000  0.375000  0.500000      4.000000
  0.250000  0.375000  0.500000      2.000000
  0.000000  0.500000  0.500000      1.000000
 
 Following cartesian coordinates:
            Coordinates               Weight
  0.000000  0.000000  0.000000      1.000000
  0.019128  0.011265 -0.000113      4.000000
  0.038255  0.022531 -0.000225      4.000000
  0.057383  0.033796 -0.000338      4.000000
  0.076510  0.045061 -0.000451      2.000000
  0.000000  0.022531 -0.000225      2.000000
  0.019128  0.033796 -0.000338      4.000000
  0.038255  0.045061 -0.000451      4.000000
  0.057383  0.056326 -0.000563      4.000000
  0.076510  0.067592 -0.000676      4.000000
 -0.057383 -0.011265  0.000113      4.000000
 -0.038255 -0.000000  0.000000      2.000000
  0.000000  0.045061 -0.000451      2.000000
  0.019128  0.056326 -0.000563      4.000000
  0.038255  0.067592 -0.000676      4.000000
  0.057383  0.078857 -0.000789      4.000000
  0.076510  0.090122 -0.000901      2.000000
  0.000000  0.067592 -0.000676      2.000000
  0.019128  0.078857 -0.000789      4.000000
  0.038255  0.090122 -0.000901      2.000000
  0.000000  0.090122 -0.000901      1.000000
  0.000000 -0.000243  0.024279      2.000000
  0.019128  0.011022  0.024166      4.000000
  0.038255  0.022288  0.024054      4.000000
  0.057383  0.033553  0.023941      4.000000
  0.076510  0.044818  0.023828      4.000000
 -0.057383 -0.034039  0.024617      4.000000
 -0.038255 -0.022773  0.024504      4.000000
 -0.019128 -0.011508  0.024392      4.000000
  0.000000  0.022288  0.024054      2.000000
  0.019128  0.033553  0.023941      4.000000
  0.038255  0.044818  0.023828      4.000000
  0.057383  0.056083  0.023716      4.000000
  0.076510  0.067349  0.023603      4.000000
 -0.057383 -0.011508  0.024392      4.000000
 -0.038255 -0.000243  0.024279      4.000000
  0.000000  0.044818  0.023828      2.000000
  0.019128  0.056083  0.023716      4.000000
  0.038255  0.067349  0.023603      4.000000
  0.057383  0.078614  0.023490      4.000000
  0.076510  0.089879  0.023378      4.000000
 -0.057383  0.011022  0.024166      4.000000
  0.000000  0.067349  0.023603      2.000000
  0.019128  0.078614  0.023490      4.000000
  0.038255  0.089879  0.023378      4.000000
  0.057383  0.101144  0.023265      4.000000
  0.076510  0.112410  0.023153      4.000000
  0.000000  0.089879  0.023378      2.000000
  0.019128  0.101144  0.023265      4.000000
  0.038255  0.112410  0.023153      4.000000
  0.057383  0.123675  0.023040      4.000000
 -0.000000 -0.067834  0.024955      2.000000
  0.019128 -0.056569  0.024842      4.000000
  0.038255 -0.045304  0.024730      4.000000
 -0.000000 -0.045304  0.024730      2.000000
  0.019128 -0.034039  0.024617      4.000000
 -0.000000 -0.022773  0.024504      2.000000
  0.000000 -0.000486  0.048558      1.000000
  0.019128  0.010780  0.048445      4.000000
  0.038255  0.022045  0.048333      4.000000
  0.057383  0.033310  0.048220      4.000000
  0.076510  0.044575  0.048107      2.000000
  0.000000  0.022045  0.048333      2.000000
  0.019128  0.033310  0.048220      4.000000
  0.038255  0.044575  0.048107      4.000000
  0.057383  0.055841  0.047995      4.000000
  0.076510  0.067106  0.047882      4.000000
 -0.057383 -0.011751  0.048671      4.000000
 -0.038255 -0.000486  0.048558      2.000000
  0.000000  0.044575  0.048107      2.000000
  0.019128  0.055841  0.047995      4.000000
  0.038255  0.067106  0.047882      4.000000
  0.057383  0.078371  0.047770      4.000000
  0.076510  0.089636  0.047657      2.000000
  0.000000  0.067106  0.047882      2.000000
  0.019128  0.078371  0.047770      4.000000
  0.038255  0.089636  0.047657      2.000000
  0.000000  0.089636  0.047657      1.000000
 


--------------------------------------------------------------------------------------------------------




 Dimension of arrays:
   k-points           NKPTS =     78   k-points in BZ     NKDIM =     78   number of bands    NBANDS=     26
   number of dos      NEDOS =    301   number of ions     NIONS =     16
   non local maximal  LDIM  =      4   non local SUM 2l+1 LMDIM =      8
   total plane-waves  NPLWV =  69984
   max r-space proj   IRMAX =      1   max aug-charges    IRDMAX=   8161
   dimension x,y,z NGX =    36 NGY =   36 NGZ =   54
   dimension x,y,z NGXF=    72 NGYF=   72 NGZF=  108
   support grid    NGXF=    72 NGYF=   72 NGZF=  108
   ions per type =              16
 NGX,Y,Z   is equivalent  to a cutoff of   9.16,  9.29,  8.72 a.u.
 NGXF,Y,Z  is equivalent  to a cutoff of  18.32, 18.59, 17.43 a.u.


 I would recommend the setting:
   dimension x,y,z NGX =    34 NGY =   33 NGZ =   53
 SYSTEM =  Mg                                      
 POSCAR =  Mg                                      

 Startparameter for this run:
   NWRITE =      2    write-flag & timer
   PREC   = n         normal or accurate (medium, high low for compatibility)
   ISTART =      0    job   : 0-new  1-cont  2-samecut
   ICHARG =      2    charge: 1-file 2-atom 10-const
   ISPIN  =      1    spin polarized calculation?
   LNONCOLLINEAR =      F non collinear calculations
   LSORBIT =      F    spin-orbit coupling
   INIWAV =      1    electr: 0-lowe 1-rand  2-diag
   LASPH  =      F    aspherical Exc in radial PAW
   METAGGA=      F    non-selfconsistent MetaGGA calc.

 Electronic Relaxation 1
   ENCUT  =  450.0 eV  33.07 Ry    5.75 a.u.  11.30 11.14 17.81*2*pi/ulx,y,z
   ENINI  =  450.0     initial cutoff
   ENAUG  =  274.6 eV  augmentation charge cutoff
   NELM   =     40;   NELMIN=  4; NELMDL= -5     # of ELM steps 
   EDIFF  = 0.1E-05   stopping-criterion for ELM
   LREAL  =      F    real-space projection
   NLSPLINE    = F    spline interpolate recip. space projectors
   LCOMPAT=      F    compatible to vasp.4.4
   GGA_COMPAT  = T    GGA compatible to vasp.4.4-vasp.4.6
   LMAXPAW     = -100 max onsite density
   LMAXMIX     =    2 max onsite mixed and CHGCAR
   VOSKOWN=      0    Vosko Wilk Nusair interpolation
   ROPT   =    0.00000
 Ionic relaxation
   EDIFFG = -.1E-03   stopping-criterion for IOM
   NSW    =    100    number of steps for IOM
   NBLOCK =      1;   KBLOCK =    100    inner block; outer block 
   IBRION =      2    ionic relax: 0-MD 1-quasi-New 2-CG
   NFREE  =      1    steps in history (QN), initial steepest desc. (CG)
   ISIF   =      2    stress and relaxation
   IWAVPR =     11    prediction:  0-non 1-charg 2-wave 3-comb
   ISYM   =      2    0-nonsym 1-usesym 2-fastsym
   LCORR  =      T    Harris-Foulkes like correction to forces

   POTIM  = 0.3000    time-step for ionic-motion
   TEIN   =    0.0    initial temperature
   TEBEG  =    0.0;   TEEND  =   0.0 temperature during run
   SMASS  =  -3.00    Nose mass-parameter (am)
   estimated Nose-frequenzy (Omega)   =  0.10E-29 period in steps =****** mass=  -0.976E-27a.u.
   SCALEE = 1.0000    scale energy and forces
   NPACO  =    256;   APACO  = 16.0  distance and # of slots for P.C.
   PSTRESS=    0.0 pullay stress

  Mass of Ions in am
   POMASS =  24.30
  Ionic Valenz
   ZVAL   =   2.00
  Atomic Wigner-Seitz radii
   RWIGS  =  -1.00
  virtual crystal weights 
   VCA    =   1.00
   NELECT =      32.0000    total number of electrons
   NUPDOWN=      -1.0000    fix difference up-down

 DOS related values:
   EMIN   =  10.00;   EMAX   =-10.00  energy-range for DOS
   EFERMI =   0.00
   ISMEAR =    -1;   SIGMA  =   0.03  broadening in eV -4-tet -1-fermi 0-gaus

 Electronic relaxation 2 (details)
   IALGO  =     68    algorithm
   LDIAG  =      T    sub-space diagonalisation (order eigenvalues)
   LSUBROT=      F    optimize rotation matrix (better conditioning)
   TURBO    =      0    0=normal 1=particle mesh
   IRESTART =      0    0=no restart 2=restart with 2 vectors
   NREBOOT  =      0    no. of reboots
   NMIN     =      0    reboot dimension
   EREF     =   0.00    reference energy to select bands
   IMIX   =      4    mixing-type and parameters
     AMIX     =   0.40;   BMIX     =  1.00
     AMIX_MAG =   1.60;   BMIX_MAG =  1.00
     AMIN     =   0.10
     WC   =   100.;   INIMIX=   1;  MIXPRE=   1;  MAXMIX=  40

 Intra band minimization:
   WEIMIN = 0.0010     energy-eigenvalue tresh-hold
   EBREAK =  0.96E-08  absolut break condition
   DEPER  =   0.30     relativ break condition  

   TIME   =   0.40     timestep for ELM

  volume/ion in A,a.u.               =      23.34       157.48
  Fermi-wavevector in a.u.,A,eV,Ry     =   0.721790  1.363984  7.088365  0.520980
  Thomas-Fermi vector in A             =   1.811587

 Write flags
   LWAVE  =      F    write WAVECAR
   LCHARG =      F    write CHGCAR
   LVTOT  =      F    write LOCPOT, total local potential
   LVHAR  =      F    write LOCPOT, Hartree potential only
   LELF   =      F    write electronic localiz. function (ELF)
   LORBIT =      0    0 simple, 1 ext, 2 COOP (PROOUT)


 Dipole corrections
   LMONO  =      F    monopole corrections only (constant potential shift)
   LDIPOL =      F    correct potential (dipole corrections)
   IDIPOL =      0    1-x, 2-y, 3-z, 4-all directions 
   EPSILON=  1.0000000 bulk dielectric constant

 Exchange correlation treatment:
   GGA     =    91    GGA type
   LEXCH   =     7    internal setting for exchange type
   VOSKOWN=      0    Vosko Wilk Nusair interpolation
   LHFCALC =     F    Hartree Fock is set to
   LHFONE  =     F    Hartree Fock one center treatment
   AEXX    =    0.0000 exact exchange contribution

 Linear response parameters
   LEPSILON=     F    determine dielectric tensor
   LRPA    =     F    only Hartree local field effects (RPA)
   LNABLA  =     F    use nabla operator in PAW spheres
   LVEL    =     F    velocity operator in full k-point grid
   LINTERFAST=   F  fast interpolation
   KINTER  =     0    interpolate to denser k-point grid
   CSHIFT  =0.1000    complex shift for real part using Kramers Kronig
   OMEGAMAX=  -1.0    maximum frequency
   DEG_THRESHOLD= 0.2000000E-02 threshold for treating states as degnerate
   RTIME   =    0.100 relaxation time in fs

 Orbital magnetization related:
   ORBITALMAG=     F  switch on orbital magnetization
   LCHIMAG   =     F  perturbation theory with respect to B field
   DQ        =  0.001000  dq finite difference perturbation B field



--------------------------------------------------------------------------------------------------------


 conjugate gradient relaxation of ions
 charge density and potential will be updated during run
 non-spin polarized calculation
 RMM-DIIS sequential band-by-band and
  variant of blocked Davidson during initial phase
 perform sub-space diagonalisation
    before iterative eigenvector-optimisation
 modified Broyden-mixing scheme, WC =      100.0
 initial mixing is a Kerker type mixing with AMIX =  0.4000 and BMIX =      1.0000
 Hartree-type preconditioning will be used
 using additional bands           10
 reciprocal scheme for non local part
 use partial core corrections
 calculate Harris-corrections to forces   (improved forces if not selfconsistent)
 use gradient corrections 
 use of overlap-Matrix (Vanderbilt PP)
 Fermi-smearing in eV        SIGMA  =   0.03


--------------------------------------------------------------------------------------------------------


  energy-cutoff  :      450.00
  volume of cell :      373.37
      direct lattice vectors                 reciprocal lattice vectors
     6.535093193 -0.000000026 -0.000000000     0.153020006  0.090122104 -0.000901221
    -3.267550309  5.548589649  0.055485896     0.000000001  0.180244004 -0.001802440
     0.000000000  0.102979729 10.297972898    -0.000000000 -0.000971162  0.097116201

  length of vectors
     6.535093193  6.439472867 10.298487783     0.177589212  0.180253015  0.097121057



 k-points in units of 2pi/SCALE and weight: Automatic                               
   0.00000000  0.00000000  0.00000000       0.004
   0.01912750  0.01126526 -0.00011265       0.016
   0.03825500  0.02253053 -0.00022531       0.016
   0.05738250  0.03379579 -0.00033796       0.016
   0.07651000  0.04506105 -0.00045061       0.008
   0.00000000  0.02253050 -0.00022531       0.008
   0.01912750  0.03379576 -0.00033796       0.016
   0.03825500  0.04506103 -0.00045061       0.016
   0.05738250  0.05632629 -0.00056326       0.016
   0.07651000  0.06759155 -0.00067592       0.016
  -0.05738250 -0.01126529  0.00011265       0.016
  -0.03825500 -0.00000003  0.00000000       0.008
   0.00000000  0.04506100 -0.00045061       0.008
   0.01912750  0.05632626 -0.00056326       0.016
   0.03825500  0.06759153 -0.00067592       0.016
   0.05738250  0.07885679 -0.00078857       0.016
   0.07651000  0.09012205 -0.00090122       0.008
   0.00000000  0.06759150 -0.00067592       0.008
   0.01912750  0.07885676 -0.00078857       0.016
   0.03825500  0.09012203 -0.00090122       0.008
   0.00000000  0.09012200 -0.00090122       0.004
   0.00000000 -0.00024279  0.02427905       0.008
   0.01912750  0.01102247  0.02416640       0.016
   0.03825500  0.02228774  0.02405375       0.016
   0.05738250  0.03355300  0.02394109       0.016
   0.07651000  0.04481826  0.02382844       0.016
  -0.05738250 -0.03403858  0.02461701       0.016
  -0.03825500 -0.02277332  0.02450436       0.016
  -0.01912750 -0.01150805  0.02439170       0.016
   0.00000000  0.02228771  0.02405375       0.008
   0.01912750  0.03355297  0.02394109       0.016
   0.03825500  0.04481824  0.02382844       0.016
   0.05738250  0.05608350  0.02371579       0.016
   0.07651000  0.06734876  0.02360313       0.016
  -0.05738250 -0.01150808  0.02439170       0.016
  -0.03825500 -0.00024282  0.02427905       0.016
   0.00000000  0.04481821  0.02382844       0.008
   0.01912750  0.05608347  0.02371579       0.016
   0.03825500  0.06734874  0.02360314       0.016
   0.05738250  0.07861400  0.02349048       0.016
   0.07651000  0.08987926  0.02337783       0.016
  -0.05738250  0.01102242  0.02416640       0.016
   0.00000000  0.06734871  0.02360314       0.008
   0.01912750  0.07861397  0.02349048       0.016
   0.03825500  0.08987924  0.02337783       0.016
   0.05738250  0.10114450  0.02326518       0.016
   0.07651000  0.11240976  0.02315252       0.016
   0.00000000  0.08987921  0.02337783       0.008
   0.01912750  0.10114447  0.02326518       0.016
   0.03825500  0.11240974  0.02315253       0.016
   0.05738250  0.12367500  0.02303987       0.016
  -0.00000000 -0.06783429  0.02495497       0.008
   0.01912750 -0.05656903  0.02484231       0.016
   0.03825500 -0.04530377  0.02472966       0.016
  -0.00000000 -0.04530379  0.02472966       0.008
   0.01912750 -0.03403853  0.02461701       0.016
  -0.00000000 -0.02277329  0.02450436       0.008
   0.00000000 -0.00048558  0.04855810       0.004
   0.01912750  0.01077968  0.04844545       0.016
   0.03825500  0.02204495  0.04833280       0.016
   0.05738250  0.03331021  0.04822014       0.016
   0.07651000  0.04457547  0.04810749       0.008
   0.00000000  0.02204492  0.04833280       0.008
   0.01912750  0.03331018  0.04822014       0.016
   0.03825500  0.04457545  0.04810749       0.016
   0.05738250  0.05584071  0.04799484       0.016
   0.07651000  0.06710597  0.04788219       0.016
  -0.05738250 -0.01175087  0.04867075       0.016
  -0.03825500 -0.00048561  0.04855810       0.008
   0.00000000  0.04457542  0.04810749       0.008
   0.01912750  0.05584068  0.04799484       0.016
   0.03825500  0.06710595  0.04788219       0.016
   0.05738250  0.07837121  0.04776953       0.016
   0.07651000  0.08963647  0.04765688       0.008
   0.00000000  0.06710592  0.04788219       0.008
   0.01912750  0.07837118  0.04776953       0.016
   0.03825500  0.08963645  0.04765688       0.008
   0.00000000  0.08963642  0.04765688       0.004

 k-points in reciprocal lattice and weights: Automatic                               
   0.00000000  0.00000000  0.00000000       0.004
   0.12500000  0.00000000  0.00000000       0.016
   0.25000000  0.00000000  0.00000000       0.016
   0.37500000  0.00000000  0.00000000       0.016
   0.50000000  0.00000000  0.00000000       0.008
   0.00000000  0.12500000  0.00000000       0.008
   0.12500000  0.12500000  0.00000000       0.016
   0.25000000  0.12500000  0.00000000       0.016
   0.37500000  0.12500000  0.00000000       0.016
   0.50000000  0.12500000  0.00000000       0.016
  -0.37500000  0.12500000  0.00000000       0.016
  -0.25000000  0.12500000  0.00000000       0.008
   0.00000000  0.25000000  0.00000000       0.008
   0.12500000  0.25000000  0.00000000       0.016
   0.25000000  0.25000000  0.00000000       0.016
   0.37500000  0.25000000  0.00000000       0.016
   0.50000000  0.25000000  0.00000000       0.008
   0.00000000  0.37500000  0.00000000       0.008
   0.12500000  0.37500000  0.00000000       0.016
   0.25000000  0.37500000  0.00000000       0.008
   0.00000000  0.50000000  0.00000000       0.004
   0.00000000  0.00000000  0.25000000       0.008
   0.12500000  0.00000000  0.25000000       0.016
   0.25000000  0.00000000  0.25000000       0.016
   0.37500000  0.00000000  0.25000000       0.016
   0.50000000  0.00000000  0.25000000       0.016
  -0.37500000  0.00000000  0.25000000       0.016
  -0.25000000  0.00000000  0.25000000       0.016
  -0.12500000  0.00000000  0.25000000       0.016
   0.00000000  0.12500000  0.25000000       0.008
   0.12500000  0.12500000  0.25000000       0.016
   0.25000000  0.12500000  0.25000000       0.016
   0.37500000  0.12500000  0.25000000       0.016
   0.50000000  0.12500000  0.25000000       0.016
  -0.37500000  0.12500000  0.25000000       0.016
  -0.25000000  0.12500000  0.25000000       0.016
   0.00000000  0.25000000  0.25000000       0.008
   0.12500000  0.25000000  0.25000000       0.016
   0.25000000  0.25000000  0.25000000       0.016
   0.37500000  0.25000000  0.25000000       0.016
   0.50000000  0.25000000  0.25000000       0.016
  -0.37500000  0.25000000  0.25000000       0.016
   0.00000000  0.37500000  0.25000000       0.008
   0.12500000  0.37500000  0.25000000       0.016
   0.25000000  0.37500000  0.25000000       0.016
   0.37500000  0.37500000  0.25000000       0.016
   0.50000000  0.37500000  0.25000000       0.016
   0.00000000  0.50000000  0.25000000       0.008
   0.12500000  0.50000000  0.25000000       0.016
   0.25000000  0.50000000  0.25000000       0.016
   0.37500000  0.50000000  0.25000000       0.016
   0.00000000 -0.37500000  0.25000000       0.008
   0.12500000 -0.37500000  0.25000000       0.016
   0.25000000 -0.37500000  0.25000000       0.016
   0.00000000 -0.25000000  0.25000000       0.008
   0.12500000 -0.25000000  0.25000000       0.016
   0.00000000 -0.12500000  0.25000000       0.008
   0.00000000  0.00000000  0.50000000       0.004
   0.12500000  0.00000000  0.50000000       0.016
   0.25000000  0.00000000  0.50000000       0.016
   0.37500000  0.00000000  0.50000000       0.016
   0.50000000  0.00000000  0.50000000       0.008
   0.00000000  0.12500000  0.50000000       0.008
   0.12500000  0.12500000  0.50000000       0.016
   0.25000000  0.12500000  0.50000000       0.016
   0.37500000  0.12500000  0.50000000       0.016
   0.50000000  0.12500000  0.50000000       0.016
  -0.37500000  0.12500000  0.50000000       0.016
  -0.25000000  0.12500000  0.50000000       0.008
   0.00000000  0.25000000  0.50000000       0.008
   0.12500000  0.25000000  0.50000000       0.016
   0.25000000  0.25000000  0.50000000       0.016
   0.37500000  0.25000000  0.50000000       0.016
   0.50000000  0.25000000  0.50000000       0.008
   0.00000000  0.37500000  0.50000000       0.008
   0.12500000  0.37500000  0.50000000       0.016
   0.25000000  0.37500000  0.50000000       0.008
   0.00000000  0.50000000  0.50000000       0.004

 position of ions in fractional coordinates (direct lattice) 
   0.16666649  0.33333349  0.12500000
   0.16666649  0.33333349  0.62500000
   0.16666649  0.83333349  0.12500000
   0.16666649  0.83333349  0.62500000
   0.66666651  0.33333349  0.12500000
   0.66666651  0.33333349  0.62500000
   0.66666651  0.83333349  0.12500000
   0.66666651  0.83333349  0.62500000
   0.33333349  0.16666649  0.37500000
   0.33333349  0.16666649  0.87500000
   0.33333349  0.66666651  0.37500000
   0.33333349  0.66666651  0.87500000
   0.83333349  0.16666649  0.37500000
   0.83333349  0.16666649  0.87500000
   0.83333349  0.66666651  0.37500000
   0.83333349  0.66666651  0.87500000

 position of ions in cartesian coordinates  (Angst):
  -0.00000289  1.86240323  1.30574192
  -0.00000289  1.91389309  6.45472837
  -1.63377805  4.63669805  1.33348487
  -1.63377805  4.68818791  6.48247132
   3.26754380  1.86240321  1.30574192
   3.26754380  1.91389308  6.45472837
   1.63376865  4.63669804  1.33348487
   1.63376865  4.68818790  6.48247132
   1.63377428  0.96338137  3.87098748
   1.63377428  1.01487123  9.01997393
  -0.00000092  3.73767628  3.89873043
  -0.00000092  3.78916614  9.04771687
   4.90132088  0.96338135  3.87098748
   4.90132088  1.01487122  9.01997392
   3.26754568  3.73767626  3.89873043
   3.26754568  3.78916613  9.04771687



--------------------------------------------------------------------------------------------------------


 k-point  1 :   0.0000 0.0000 0.0000  plane waves:    8105
 k-point  2 :   0.1250 0.0000 0.0000  plane waves:    8083
 k-point  3 :   0.2500 0.0000 0.0000  plane waves:    8091
 k-point  4 :   0.3750 0.0000 0.0000  plane waves:    8088
 k-point  5 :   0.5000 0.0000 0.0000  plane waves:    8108
 k-point  6 :   0.0000 0.1250 0.0000  plane waves:    8080
 k-point  7 :   0.1250 0.1250 0.0000  plane waves:    8077
 k-point  8 :   0.2500 0.1250 0.0000  plane waves:    8098
 k-point  9 :   0.3750 0.1250 0.0000  plane waves:    8104
 k-point 10 :   0.5000 0.1250 0.0000  plane waves:    8093
 k-point 11 :  -0.3750 0.1250 0.0000  plane waves:    8066
 k-point 12 :  -0.2500 0.1250 0.0000  plane waves:    8049
 k-point 13 :   0.0000 0.2500 0.0000  plane waves:    8089
 k-point 14 :   0.1250 0.2500 0.0000  plane waves:    8100
 k-point 15 :   0.2500 0.2500 0.0000  plane waves:    8106
 k-point 16 :   0.3750 0.2500 0.0000  plane waves:    8104
 k-point 17 :   0.5000 0.2500 0.0000  plane waves:    8097
 k-point 18 :   0.0000 0.3750 0.0000  plane waves:    8105
 k-point 19 :   0.1250 0.3750 0.0000  plane waves:    8102
 k-point 20 :   0.2500 0.3750 0.0000  plane waves:    8112
 k-point 21 :   0.0000 0.5000 0.0000  plane waves:    8078
 k-point 22 :   0.0000 0.0000 0.2500  plane waves:    8092
 k-point 23 :   0.1250 0.0000 0.2500  plane waves:    8086
 k-point 24 :   0.2500 0.0000 0.2500  plane waves:    8069
 k-point 25 :   0.3750 0.0000 0.2500  plane waves:    8097
 k-point 26 :   0.5000 0.0000 0.2500  plane waves:    8092
 k-point 27 :  -0.3750 0.0000 0.2500  plane waves:    8075
 k-point 28 :  -0.2500 0.0000 0.2500  plane waves:    8093
 k-point 29 :  -0.1250 0.0000 0.2500  plane waves:    8083
 k-point 30 :   0.0000 0.1250 0.2500  plane waves:    8080
 k-point 31 :   0.1250 0.1250 0.2500  plane waves:    8079
 k-point 32 :   0.2500 0.1250 0.2500  plane waves:    8097
 k-point 33 :   0.3750 0.1250 0.2500  plane waves:    8105
 k-point 34 :   0.5000 0.1250 0.2500  plane waves:    8098
 k-point 35 :  -0.3750 0.1250 0.2500  plane waves:    8093
 k-point 36 :  -0.2500 0.1250 0.2500  plane waves:    8077
 k-point 37 :   0.0000 0.2500 0.2500  plane waves:    8102
 k-point 38 :   0.1250 0.2500 0.2500  plane waves:    8096
 k-point 39 :   0.2500 0.2500 0.2500  plane waves:    8101
 k-point 40 :   0.3750 0.2500 0.2500  plane waves:    8102
 k-point 41 :   0.5000 0.2500 0.2500  plane waves:    8100
 k-point 42 :  -0.3750 0.2500 0.2500  plane waves:    8073
 k-point 43 :   0.0000 0.3750 0.2500  plane waves:    8097
 k-point 44 :   0.1250 0.3750 0.2500  plane waves:    8103
 k-point 45 :   0.2500 0.3750 0.2500  plane waves:    8088
 k-point 46 :   0.3750 0.3750 0.2500  plane waves:    8106
 k-point 47 :   0.5000 0.3750 0.2500  plane waves:    8086
 k-point 48 :   0.0000 0.5000 0.2500  plane waves:    8106
 k-point 49 :   0.1250 0.5000 0.2500  plane waves:    8098
 k-point 50 :   0.2500 0.5000 0.2500  plane waves:    8095
 k-point 51 :   0.3750 0.5000 0.2500  plane waves:    8094
 k-point 52 :   0.0000-0.3750 0.2500  plane waves:    8103
 k-point 53 :   0.1250-0.3750 0.2500  plane waves:    8092
 k-point 54 :   0.2500-0.3750 0.2500  plane waves:    8090
 k-point 55 :   0.0000-0.2500 0.2500  plane waves:    8092
 k-point 56 :   0.1250-0.2500 0.2500  plane waves:    8093
 k-point 57 :   0.0000-0.1250 0.2500  plane waves:    8086
 k-point 58 :   0.0000 0.0000 0.5000  plane waves:    8098
 k-point 59 :   0.1250 0.0000 0.5000  plane waves:    8093
 k-point 60 :   0.2500 0.0000 0.5000  plane waves:    8090
 k-point 61 :   0.3750 0.0000 0.5000  plane waves:    8088
 k-point 62 :   0.5000 0.0000 0.5000  plane waves:    8102
 k-point 63 :   0.0000 0.1250 0.5000  plane waves:    8093
 k-point 64 :   0.1250 0.1250 0.5000  plane waves:    8098
 k-point 65 :   0.2500 0.1250 0.5000  plane waves:    8094
 k-point 66 :   0.3750 0.1250 0.5000  plane waves:    8092
 k-point 67 :   0.5000 0.1250 0.5000  plane waves:    8086
 k-point 68 :  -0.3750 0.1250 0.5000  plane waves:    8081
 k-point 69 :  -0.2500 0.1250 0.5000  plane waves:    8080
 k-point 70 :   0.0000 0.2500 0.5000  plane waves:    8101
 k-point 71 :   0.1250 0.2500 0.5000  plane waves:    8100
 k-point 72 :   0.2500 0.2500 0.5000  plane waves:    8103
 k-point 73 :   0.3750 0.2500 0.5000  plane waves:    8090
 k-point 74 :   0.5000 0.2500 0.5000  plane waves:    8104
 k-point 75 :   0.0000 0.3750 0.5000  plane waves:    8117
 k-point 76 :   0.1250 0.3750 0.5000  plane waves:    8104
 k-point 77 :   0.2500 0.3750 0.5000  plane waves:    8096
 k-point 78 :   0.0000 0.5000 0.5000  plane waves:    8100

 maximum and minimum number of plane-waves per node :       702      646

 maximum number of plane-waves:      8117
 maximum index in each direction: 
   IXMAX=   11   IYMAX=   11   IZMAX=   17
   IXMIN=  -11   IYMIN=  -11   IZMIN=  -18

 WARNING: aliasing errors must be expected set NGX to  46 to avoid them
 WARNING: aliasing errors must be expected set NGY to  46 to avoid them
 WARNING: aliasing errors must be expected set NGZ to  72 to avoid them
 aliasing errors are usually negligible using standard VASP settings
 and one can safely disregard these warnings

 parallel 3D FFT for wavefunctions:
    minimum data exchange during FFTs selected (reduces bandwidth)
 parallel 3D FFT for charge:
    minimum data exchange during FFTs selected (reduces bandwidth)


 total amount of memory used by VASP on root node    47383. kBytes
========================================================================

   base      :      30000. kBytes
   nonl-proj :       3610. kBytes
   fftplans  :        978. kBytes
   grid      :       1368. kBytes
   one-center:          6. kBytes
   wavefun   :      11421. kBytes

     INWAV:  cpu time    0.00: real time    0.00
 Broyden mixing: mesh for mixing (old mesh)
   NGX = 23   NGY = 23   NGZ = 35
  (NGX  = 72   NGY  = 72   NGZ  =108)
  gives a total of  18515 points

 initial charge density was supplied:
 charge density of overlapping atoms calculated
 number of electron      32.0000000 magnetization 
 keeping initial charge density in first step


--------------------------------------------------------------------------------------------------------


 Maximum index for augmentation-charges          418 (set IRDMAX)


--------------------------------------------------------------------------------------------------------


 First call to EWALD:  gamma=   0.246
 Maximum number of real-space cells 3x 3x 2
 Maximum number of reciprocal cells 3x 3x 4

 FEWALD executed in parallel
    FEWALD:  cpu time    0.00: real time    0.00


----------------------------------------- Iteration    1(   1)  ---------------------------------------


    POTLOK:  cpu time    0.03: real time    0.03
    SETDIJ:  cpu time    0.00: real time    0.00
     EDDAV:  cpu time    0.65: real time    0.65
       DOS:  cpu time    0.00: real time    0.00
    --------------------------------------------
      LOOP:  cpu time    0.68: real time    0.69

 eigenvalue-minimisations  :  4056
 total energy-change (2. order) : 0.2654276E+02  (-0.8406338E+03)
 number of electron      32.0000000 magnetization 
 augmentation part       32.0000000 magnetization 

 Free energy of the ion-electron system (eV)
  ---------------------------------------------------
  alpha Z        PSCENC =       -11.84528540
  Ewald energy   TEWEN  =      -465.64682140
  -Hartree energ DENC   =        -0.50162406
  -exchange      EXHF   =         0.00000000
  -V(xc)+E(xc)   XCENC  =      -130.98376295
  PAW double counting   =       186.18586259       -8.88314254
  entropy T*S    EENTRO =        -0.00786514
  eigenvalues    EBANDS =        88.90997533
  atomic energy  EATOM  =       369.31542285
  ---------------------------------------------------
  free energy    TOTEN  =        26.54275929 eV

  energy without entropy =       26.55062442  energy(sigma->0) =       26.54669185


--------------------------------------------------------------------------------------------------------




----------------------------------------- Iteration    1(   2)  ---------------------------------------


     EDDAV:  cpu time    0.74: real time    0.74
       DOS:  cpu time    0.00: real time    0.00
    --------------------------------------------
      LOOP:  cpu time    0.74: real time    0.75

 eigenvalue-minimisations  :  4948
 total energy-change (2. order) :-0.4851902E+02  (-0.4465946E+02)
 number of electron      32.0000000 magnetization 
 augmentation part       32.0000000 magnetization 

 Free energy of the ion-electron system (eV)
  ---------------------------------------------------
  alpha Z        PSCENC =       -11.84528540
  Ewald energy   TEWEN  =      -465.64682140
  -Hartree energ DENC   =        -0.50162406
  -exchange      EXHF   =         0.00000000
  -V(xc)+E(xc)   XCENC  =      -130.98376295
  PAW double counting   =       186.18586259       -8.88314254
  entropy T*S    EENTRO =        -0.01617355
  eigenvalues    EBANDS =        40.39926575
  atomic energy  EATOM  =       369.31542285
  ---------------------------------------------------
  free energy    TOTEN  =       -21.97625871 eV

  energy without entropy =      -21.96008516  energy(sigma->0) =      -21.96817194


--------------------------------------------------------------------------------------------------------




----------------------------------------- Iteration    1(   3)  ---------------------------------------


     EDDAV:  cpu time    0.75: real time    0.75
       DOS:  cpu time    0.00: real time    0.00
    --------------------------------------------
      LOOP:  cpu time    0.75: real time    0.76

 eigenvalue-minimisations  :  5168
 total energy-change (2. order) :-0.2294764E+01  (-0.2192322E+01)
 number of electron      32.0000000 magnetization 
 augmentation part       32.0000000 magnetization 

 Free energy of the ion-electron system (eV)
  ---------------------------------------------------
  alpha Z        PSCENC =       -11.84528540
  Ewald energy   TEWEN  =      -465.64682140
  -Hartree energ DENC   =        -0.50162406
  -exchange      EXHF   =         0.00000000
  -V(xc)+E(xc)   XCENC  =      -130.98376295
  PAW double counting   =       186.18586259       -8.88314254
  entropy T*S    EENTRO =        -0.01446428
  eigenvalues    EBANDS =        38.10279272
  atomic energy  EATOM  =       369.31542285
  ---------------------------------------------------
  free energy    TOTEN  =       -24.27102247 eV

  energy without entropy =      -24.25655819  energy(sigma->0) =      -24.26379033


--------------------------------------------------------------------------------------------------------




----------------------------------------- Iteration    1(   4)  ---------------------------------------


     EDDAV:  cpu time    0.79: real time    0.79
       DOS:  cpu time    0.00: real time    0.00
    --------------------------------------------
      LOOP:  cpu time    0.80: real time    0.80

 eigenvalue-minimisations  :  5400
 total energy-change (2. order) :-0.5690144E-01  (-0.5669301E-01)
 number of electron      32.0000000 magnetization 
 augmentation part       32.0000000 magnetization 

 Free energy of the ion-electron system (eV)
  ---------------------------------------------------
  alpha Z        PSCENC =       -11.84528540
  Ewald energy   TEWEN  =      -465.64682140
  -Hartree energ DENC   =        -0.50162406
  -exchange      EXHF   =         0.00000000
  -V(xc)+E(xc)   XCENC  =      -130.98376295
  PAW double counting   =       186.18586259       -8.88314254
  entropy T*S    EENTRO =        -0.01448806
  eigenvalues    EBANDS =        38.04591506
  atomic energy  EATOM  =       369.31542285
  ---------------------------------------------------
  free energy    TOTEN  =       -24.32792392 eV

  energy without entropy =      -24.31343586  energy(sigma->0) =      -24.32067989


--------------------------------------------------------------------------------------------------------




----------------------------------------- Iteration    1(   5)  ---------------------------------------


     EDDAV:  cpu time    0.80: real time    0.81
       DOS:  cpu time    0.00: real time    0.00
    CHARGE:  cpu time    0.07: real time    0.07
    MIXING:  cpu time    0.00: real time    0.00
    --------------------------------------------
      LOOP:  cpu time    0.88: real time    0.89

 eigenvalue-minimisations  :  5526
 total energy-change (2. order) :-0.1749666E-02  (-0.1749424E-02)
 number of electron      31.9999999 magnetization 
 augmentation part        0.0957277 magnetization 

 Broyden mixing:
  rms(total) = 0.27547E+00    rms(broyden)= 0.27547E+00
  rms(prec ) = 0.36630E+00
  weight for this iteration     100.00

 Free energy of the ion-electron system (eV)
  ---------------------------------------------------
  alpha Z        PSCENC =       -11.84528540
  Ewald energy   TEWEN  =      -465.64682140
  -Hartree energ DENC   =        -0.50162406
  -exchange      EXHF   =         0.00000000
  -V(xc)+E(xc)   XCENC  =      -130.98376295
  PAW double counting   =       186.18586259       -8.88314254
  entropy T*S    EENTRO =        -0.01448915
  eigenvalues    EBANDS =        38.04416648
  atomic energy  EATOM  =       369.31542285
  ---------------------------------------------------
  free energy    TOTEN  =       -24.32967358 eV

  energy without entropy =      -24.31518443  energy(sigma->0) =      -24.32242901


--------------------------------------------------------------------------------------------------------




----------------------------------------- Iteration    1(   6)  ---------------------------------------


    POTLOK:  cpu time    0.02: real time    0.02
    SETDIJ:  cpu time    0.00: real time    0.00
    EDDIAG:  cpu time    0.15: real time    0.15
  RMM-DIIS:  cpu time    0.46: real time    0.46
    ORTHCH:  cpu time    0.01: real time    0.01
       DOS:  cpu time    0.00: real time    0.00
    CHARGE:  cpu time    0.06: real time    0.06
    MIXING:  cpu time    0.00: real time    0.00
    --------------------------------------------
      LOOP:  cpu time    0.71: real time    0.72

 eigenvalue-minimisations  :  4056
 total energy-change (2. order) : 0.1390076E-02  (-0.8166976E-03)
 number of electron      31.9999999 magnetization 
 augmentation part        0.0952487 magnetization 

 Broyden mixing:
  rms(total) = 0.17655E+00    rms(broyden)= 0.17655E+00
  rms(prec ) = 0.23695E+00
  weight for this iteration     100.00

 eigenvalues of (default mixing * dielectric matrix)
  average eigenvalue GAMMA=   2.7555
  2.7555

 Free energy of the ion-electron system (eV)
  ---------------------------------------------------
  alpha Z        PSCENC =       -11.84528540
  Ewald energy   TEWEN  =      -465.64682140
  -Hartree energ DENC   =        -0.46653126
  -exchange      EXHF   =         0.00000000
  -V(xc)+E(xc)   XCENC  =      -130.58970642
  PAW double counting   =       185.67147031       -8.34225600
  entropy T*S    EENTRO =        -0.01449640
  eigenvalues    EBANDS =        37.58992022
  atomic energy  EATOM  =       369.31542285
  ---------------------------------------------------
  free energy    TOTEN  =       -24.32828351 eV

  energy without entropy =      -24.31378710  energy(sigma->0) =      -24.32103530


--------------------------------------------------------------------------------------------------------




----------------------------------------- Iteration    1(   7)  ---------------------------------------


    POTLOK:  cpu time    0.02: real time    0.02
    SETDIJ:  cpu time    0.00: real time    0.00
    EDDIAG:  cpu time    0.15: real time    0.15
  RMM-DIIS:  cpu time    0.46: real time    0.46
    ORTHCH:  cpu time    0.01: real time    0.01
       DOS:  cpu time    0.00: real time    0.00
    CHARGE:  cpu time    0.06: real time    0.06
    MIXING:  cpu time    0.00: real time    0.00
    --------------------------------------------
      LOOP:  cpu time    0.71: real time    0.72

 eigenvalue-minimisations  :  4056
 total energy-change (2. order) :-0.3736692E-02  (-0.3126241E-02)
 number of electron      31.9999999 magnetization 
 augmentation part        0.0950008 magnetization 

 Broyden mixing:
  rms(total) = 0.11834E-01    rms(broyden)= 0.11834E-01
  rms(prec ) = 0.13435E-01
  weight for this iteration     100.00

 eigenvalues of (default mixing * dielectric matrix)
  average eigenvalue GAMMA=   2.5298
  2.1859  2.8737

 Free energy of the ion-electron system (eV)
  ---------------------------------------------------
  alpha Z        PSCENC =       -11.84528540
  Ewald energy   TEWEN  =      -465.64682140
  -Hartree energ DENC   =        -0.88708952
  -exchange      EXHF   =         0.00000000
  -V(xc)+E(xc)   XCENC  =      -129.63742994
  PAW double counting   =       184.85442660       -7.48427155
  entropy T*S    EENTRO =        -0.01448404
  eigenvalues    EBANDS =        37.01351219
  atomic energy  EATOM  =       369.31542285
  ---------------------------------------------------
  free energy    TOTEN  =       -24.33202020 eV

  energy without entropy =      -24.31753616  energy(sigma->0) =      -24.32477818


--------------------------------------------------------------------------------------------------------




----------------------------------------- Iteration    1(   8)  ---------------------------------------


    POTLOK:  cpu time    0.02: real time    0.02
    SETDIJ:  cpu time    0.00: real time    0.00
    EDDIAG:  cpu time    0.15: real time    0.15
  RMM-DIIS:  cpu time    0.46: real time    0.46
    ORTHCH:  cpu time    0.01: real time    0.01
       DOS:  cpu time    0.00: real time    0.00
    CHARGE:  cpu time    0.06: real time    0.06
    MIXING:  cpu time    0.00: real time    0.00
    --------------------------------------------
      LOOP:  cpu time    0.71: real time    0.72

 eigenvalue-minimisations  :  4061
 total energy-change (2. order) : 0.1406789E-03  (-0.3248051E-04)
 number of electron      31.9999999 magnetization 
 augmentation part        0.0950684 magnetization 

 Broyden mixing:
  rms(total) = 0.32470E-02    rms(broyden)= 0.32470E-02
  rms(prec ) = 0.34438E-02
  weight for this iteration     100.00

 eigenvalues of (default mixing * dielectric matrix)
  average eigenvalue GAMMA=   2.1401
  0.9944  2.8626  2.5633

 Free energy of the ion-electron system (eV)
  ---------------------------------------------------
  alpha Z        PSCENC =       -11.84528540
  Ewald energy   TEWEN  =      -465.64682140
  -Hartree energ DENC   =        -0.91830058
  -exchange      EXHF   =         0.00000000
  -V(xc)+E(xc)   XCENC  =      -129.59592877
  PAW double counting   =       184.92603464       -7.56101812
  entropy T*S    EENTRO =        -0.01448533
  eigenvalues    EBANDS =        37.00850259
  atomic energy  EATOM  =       369.31542285
  ---------------------------------------------------
  free energy    TOTEN  =       -24.33187952 eV

  energy without entropy =      -24.31739418  energy(sigma->0) =      -24.32463685


--------------------------------------------------------------------------------------------------------




----------------------------------------- Iteration    1(   9)  ---------------------------------------


    POTLOK:  cpu time    0.02: real time    0.02
    SETDIJ:  cpu time    0.00: real time    0.00
    EDDIAG:  cpu time    0.15: real time    0.15
  RMM-DIIS:  cpu time    0.51: real time    0.51
    ORTHCH:  cpu time    0.01: real time    0.01
       DOS:  cpu time    0.00: real time    0.00
    CHARGE:  cpu time    0.06: real time    0.06
    MIXING:  cpu time    0.00: real time    0.00
    --------------------------------------------
      LOOP:  cpu time    0.76: real time    0.77

 eigenvalue-minimisations  :  4566
 total energy-change (2. order) :-0.1963237E-04  (-0.5162295E-05)
 number of electron      31.9999999 magnetization 
 augmentation part        0.0953409 magnetization 

 Broyden mixing:
  rms(total) = 0.21884E-03    rms(broyden)= 0.21884E-03
  rms(prec ) = 0.27282E-03
  weight for this iteration     100.00

 eigenvalues of (default mixing * dielectric matrix)
  average eigenvalue GAMMA=   2.1395
  1.0052  2.9110  2.5208  2.1209

 Free energy of the ion-electron system (eV)
  ---------------------------------------------------
  alpha Z        PSCENC =       -11.84528540
  Ewald energy   TEWEN  =      -465.64682140
  -Hartree energ DENC   =        -0.92219884
  -exchange      EXHF   =         0.00000000
  -V(xc)+E(xc)   XCENC  =      -129.59199492
  PAW double counting   =       184.96012993       -7.59775126
  entropy T*S    EENTRO =        -0.01448587
  eigenvalues    EBANDS =        37.01108576
  atomic energy  EATOM  =       369.31542285
  ---------------------------------------------------
  free energy    TOTEN  =       -24.33189915 eV

  energy without entropy =      -24.31741328  energy(sigma->0) =      -24.32465622


--------------------------------------------------------------------------------------------------------




----------------------------------------- Iteration    1(  10)  ---------------------------------------


    POTLOK:  cpu time    0.02: real time    0.02
    SETDIJ:  cpu time    0.00: real time    0.00
    EDDIAG:  cpu time    0.15: real time    0.15
  RMM-DIIS:  cpu time    0.38: real time    0.38
    ORTHCH:  cpu time    0.01: real time    0.01
       DOS:  cpu time    0.00: real time    0.00
    CHARGE:  cpu time    0.06: real time    0.06
    MIXING:  cpu time    0.00: real time    0.00
    --------------------------------------------
      LOOP:  cpu time    0.63: real time    0.64

 eigenvalue-minimisations  :  3253
 total energy-change (2. order) :-0.4230118E-05  (-0.3448689E-06)
 number of electron      31.9999999 magnetization 
 augmentation part        0.0953851 magnetization 

 Broyden mixing:
  rms(total) = 0.72713E-04    rms(broyden)= 0.72712E-04
  rms(prec ) = 0.96591E-04
  weight for this iteration     100.00

 eigenvalues of (default mixing * dielectric matrix)
  average eigenvalue GAMMA=   2.0473
  2.8228  2.8228  2.5102  1.0086  1.0719

 Free energy of the ion-electron system (eV)
  ---------------------------------------------------
  alpha Z        PSCENC =       -11.84528540
  Ewald energy   TEWEN  =      -465.64682140
  -Hartree energ DENC   =        -0.92271259
  -exchange      EXHF   =         0.00000000
  -V(xc)+E(xc)   XCENC  =      -129.59140229
  PAW double counting   =       184.96692849       -7.60542343
  entropy T*S    EENTRO =        -0.01448583
  eigenvalues    EBANDS =        37.01187622
  atomic energy  EATOM  =       369.31542285
  ---------------------------------------------------
  free energy    TOTEN  =       -24.33190338 eV

  energy without entropy =      -24.31741755  energy(sigma->0) =      -24.32466047


--------------------------------------------------------------------------------------------------------




----------------------------------------- Iteration    1(  11)  ---------------------------------------


    POTLOK:  cpu time    0.02: real time    0.02
    SETDIJ:  cpu time    0.00: real time    0.00
    EDDIAG:  cpu time    0.15: real time    0.15
  RMM-DIIS:  cpu time    0.32: real time    0.32
    ORTHCH:  cpu time    0.01: real time    0.01
       DOS:  cpu time    0.00: real time    0.00
    CHARGE:  cpu time    0.06: real time    0.06
    MIXING:  cpu time    0.00: real time    0.00
    --------------------------------------------
      LOOP:  cpu time    0.56: real time    0.58

 eigenvalue-minimisations  :  2509
 total energy-change (2. order) :-0.1244659E-05  (-0.4743297E-07)
 number of electron      31.9999999 magnetization 
 augmentation part        0.0953964 magnetization 

 Broyden mixing:
  rms(total) = 0.17159E-04    rms(broyden)= 0.17159E-04
  rms(prec ) = 0.24258E-04
  weight for this iteration     100.00

 eigenvalues of (default mixing * dielectric matrix)
  average eigenvalue GAMMA=   2.0535
  2.8631  2.8631  2.5109  2.0961  0.9937  0.9937

 Free energy of the ion-electron system (eV)
  ---------------------------------------------------
  alpha Z        PSCENC =       -11.84528540
  Ewald energy   TEWEN  =      -465.64682140
  -Hartree energ DENC   =        -0.92249457
  -exchange      EXHF   =         0.00000000
  -V(xc)+E(xc)   XCENC  =      -129.59176243
  PAW double counting   =       184.96900529       -7.60773162
  entropy T*S    EENTRO =        -0.01448584
  eigenvalues    EBANDS =        37.01224849
  atomic energy  EATOM  =       369.31542285
  ---------------------------------------------------
  free energy    TOTEN  =       -24.33190463 eV

  energy without entropy =      -24.31741879  energy(sigma->0) =      -24.32466171


--------------------------------------------------------------------------------------------------------




----------------------------------------- Iteration    1(  12)  ---------------------------------------


    POTLOK:  cpu time    0.02: real time    0.02
    SETDIJ:  cpu time    0.00: real time    0.00
    EDDIAG:  cpu time    0.15: real time    0.15
  RMM-DIIS:  cpu time    0.30: real time    0.30
    ORTHCH:  cpu time    0.01: real time    0.01
       DOS:  cpu time    0.00: real time    0.00
    --------------------------------------------
      LOOP:  cpu time    0.48: real time    0.49

 eigenvalue-minimisations  :  2263
 total energy-change (2. order) :-0.2254015E-06  (-0.2063871E-07)
 number of electron      31.9999999 magnetization 
 augmentation part        0.0953964 magnetization 

 Free energy of the ion-electron system (eV)
  ---------------------------------------------------
  alpha Z        PSCENC =       -11.84528540
  Ewald energy   TEWEN  =      -465.64682140
  -Hartree energ DENC   =        -0.92249866
  -exchange      EXHF   =         0.00000000
  -V(xc)+E(xc)   XCENC  =      -129.59176644
  PAW double counting   =       184.96925818       -7.60800271
  entropy T*S    EENTRO =        -0.01448584
  eigenvalues    EBANDS =        37.01227457
  atomic energy  EATOM  =       369.31542285
  ---------------------------------------------------
  free energy    TOTEN  =       -24.33190485 eV

  energy without entropy =      -24.31741901  energy(sigma->0) =      -24.32466193


--------------------------------------------------------------------------------------------------------




 average (electrostatic) potential at core
  the test charge radii are     1.0714
  (the norm of the test charge is              1.0000)
       1 -54.2659       2 -54.2659       3 -54.2659       4 -54.2659       5 -54.2659
       6 -54.2659       7 -54.2659       8 -54.2659       9 -54.2659      10 -54.2659
      11 -54.2659      12 -54.2659      13 -54.2659      14 -54.2659      15 -54.2659
      16 -54.2659



 E-fermi :   3.8770     XC(G=0):  -8.1604     alpha+bet : -8.7038


 k-point     1 :       0.0000    0.0000    0.0000
  band No.  band energies     occupation 
      1      -2.9898      2.00000
      2      -1.5768      2.00000
      3      -1.5764      2.00000
      4       1.6175      2.00000
      5       1.6175      2.00000
      6       1.6839      2.00000
      7       1.6839      2.00000
      8       1.7788      2.00000
      9       1.7916      2.00000
     10       2.3230      2.00000
     11       2.6889      2.00000
     12       2.6889      2.00000
     13       2.7593      2.00000
     14       2.7701      2.00000
     15       2.7701      2.00000
     16       2.8066      2.00000
     17       2.9240      2.00000
     18       3.2764      2.00000
     19       3.2764      2.00000
     20       3.3806      2.00000
     21       3.3969      2.00000
     22       3.3969      2.00000
     23       3.6181      1.99994
     24       6.4563      0.00000
     25       6.4566      0.00000
     26       6.5801      0.00000

 k-point     2 :       0.1250    0.0000    0.0000
  band No.  band energies     occupation 
      1      -2.9155      2.00000
      2      -1.5099      2.00000
      3      -1.4969      2.00000
      4       0.5851      2.00000
      5       1.1719      2.00000
      6       1.2747      2.00000
      7       1.8887      2.00000
      8       1.9731      2.00000
      9       2.2651      2.00000
     10       2.3906      2.00000
     11       2.4242      2.00000
     12       2.4296      2.00000
     13       2.4848      2.00000
     14       2.5264      2.00000
     15       2.6578      2.00000
     16       2.8312      2.00000
     17       2.8792      2.00000
     18       3.6779      1.99930
     19       3.7774      1.96349
     20       3.7912      1.93734
     21       4.0200      0.00655
     22       4.2061      0.00000
     23       4.3232      0.00000
     24       5.6348      0.00000
     25       6.1694      0.00000
     26       6.2522      0.00000

 k-point     3 :       0.2500    0.0000    0.0000
  band No.  band energies     occupation 
      1      -2.6929      2.00000
      2      -1.2969      2.00000
      3      -1.2711      2.00000
      4      -0.3499      2.00000
      5       0.8339      2.00000
      6       0.9027      2.00000
      7       0.9848      2.00000
      8       1.0595      2.00000
      9       2.1128      2.00000
     10       2.1546      2.00000
     11       2.2324      2.00000
     12       2.3226      2.00000
     13       2.5932      2.00000
     14       3.0073      2.00000
     15       3.0954      2.00000
     16       3.1999      2.00000
     17       4.0452      0.00239
     18       4.3972      0.00000
     19       4.4791      0.00000
     20       4.5271      0.00000
     21       4.7578      0.00000
     22       4.7616      0.00000
     23       5.4972      0.00000
     24       5.6232      0.00000
     25       5.6395      0.00000
     26       5.8654      0.00000

 k-point     4 :       0.3750    0.0000    0.0000
  band No.  band energies     occupation 
      1      -2.3231      2.00000
      2      -1.1489      2.00000
      3      -0.9387      2.00000
      4      -0.9002      2.00000
      5       0.2056      2.00000
      6       0.2688      2.00000
      7       0.6372      2.00000
      8       0.6716      2.00000
      9       1.9199      2.00000
     10       1.9410      2.00000
     11       2.0536      2.00000
     12       2.0991      2.00000
     13       2.9312      2.00000
     14       3.4499      2.00000
     15       3.8654      1.22801
     16       4.0136      0.00844
     17       4.0769      0.00067
     18       4.4340      0.00000
     19       5.2563      0.00000
     20       5.3214      0.00000
     21       5.3977      0.00000
     22       5.6254      0.00000
     23       5.6691      0.00000
     24       5.6717      0.00000
     25       5.8534      0.00000
     26       5.9443      0.00000

 k-point     5 :       0.5000    0.0000    0.0000
  band No.  band energies     occupation 
      1      -1.8076      2.00000
      2      -1.8076      2.00000
      3      -0.4371      2.00000
      4      -0.4371      2.00000
      5      -0.3860      2.00000
      6      -0.3860      2.00000
      7       0.5830      2.00000
      8       0.5830      2.00000
      9       1.8618      2.00000
     10       1.8618      2.00000
     11       2.0083      2.00000
     12       2.0083      2.00000
     13       3.4049      2.00000
     14       3.4049      2.00000
     15       3.9264      0.24309
     16       3.9264      0.24309
     17       4.7527      0.00000
     18       4.7527      0.00000
     19       5.1153      0.00000
     20       5.1153      0.00000
     21       5.6324      0.00000
     22       5.6324      0.00000
     23       6.0661      0.00000
     24       6.0661      0.00000
     25       6.0991      0.00000
     26       6.0991      0.00000

 k-point     6 :       0.0000    0.1250    0.0000
  band No.  band energies     occupation 
      1      -2.9133      2.00000
      2      -1.5141      2.00000
      3      -1.4882      2.00000
      4       0.6907      2.00000
      5       1.1400      2.00000
      6       1.1401      2.00000
      7       1.9475      2.00000
      8       2.1163      2.00000
      9       2.3003      2.00000
     10       2.3003      2.00000
     11       2.3917      2.00000
     12       2.4129      2.00000
     13       2.4129      2.00000
     14       2.4830      2.00000
     15       2.4830      2.00000
     16       2.8822      2.00000
     17       2.9944      2.00000
     18       3.6929      1.99873
     19       3.6929      1.99873
     20       3.8240      1.78538
     21       3.8240      1.78532
     22       4.3253      0.00000
     23       4.5581      0.00000
     24       5.7123      0.00000
     25       6.1481      0.00000
     26       6.1486      0.00000

 k-point     7 :       0.1250    0.1250    0.0000
  band No.  band energies     occupation 
      1      -2.7626      2.00000
      2      -1.3721      2.00000
      3      -1.3333      2.00000
      4       0.1420      2.00000
      5       0.2459      2.00000
      6       1.4725      2.00000
      7       1.5240      2.00000
      8       1.5340      2.00000
      9       1.6837      2.00000
     10       1.8215      2.00000
     11       1.9119      2.00000
     12       2.5279      2.00000
     13       2.8938      2.00000
     14       2.9707      2.00000
     15       3.0296      2.00000
     16       3.4957      2.00000
     17       3.5196      2.00000
     18       3.6193      1.99993
     19       3.6728      1.99943
     20       4.8952      0.00000
     21       5.0167      0.00000
     22       5.0336      0.00000
     23       5.2241      0.00000
     24       5.2571      0.00000
     25       5.2994      0.00000
     26       6.0109      0.00000

 k-point     8 :       0.2500    0.1250    0.0000
  band No.  band energies     occupation 
      1      -2.4641      2.00000
      2      -1.0843      2.00000
      3      -1.0328      2.00000
      4      -0.7231      2.00000
      5      -0.0570      2.00000
      6       0.6308      2.00000
      7       0.6810      2.00000
      8       1.2347      2.00000
      9       1.3834      2.00000
     10       1.6378      2.00000
     11       2.6579      2.00000
     12       2.7995      2.00000
     13       2.8541      2.00000
     14       2.9850      2.00000
     15       3.3180      2.00000
     16       4.0851      0.00048
     17       4.1535      0.00003
     18       4.4093      0.00000
     19       4.4101      0.00000
     20       4.5212      0.00000
     21       5.0241      0.00000
     22       5.5902      0.00000
     23       5.8378      0.00000
     24       5.9090      0.00000
     25       6.0054      0.00000
     26       6.0894      0.00000

 k-point     9 :       0.3750    0.1250    0.0000
  band No.  band energies     occupation 
      1      -2.0193      2.00000
      2      -1.4499      2.00000
      3      -0.6521      2.00000
      4      -0.5881      2.00000
      5      -0.2165      2.00000
      6      -0.0782      2.00000
      7      -0.0401      2.00000
      8       1.0848      2.00000
      9       1.2217      2.00000
     10       1.5164      2.00000
     11       2.7558      2.00000
     12       2.9071      2.00000
     13       3.2068      2.00000
     14       3.6044      1.99996
     15       3.7379      1.99237
     16       3.7383      1.99224
     17       4.2332      0.00000
     18       4.8326      0.00000
     19       4.8868      0.00000
     20       4.9626      0.00000
     21       4.9995      0.00000
     22       5.0135      0.00000
     23       5.9524      0.00000
     24       6.4016      0.00000
     25       6.5134      0.00000
     26       6.6815      0.00000

 k-point    10 :       0.5000    0.1250    0.0000
  band No.  band energies     occupation 
      1      -2.0349      2.00000
      2      -1.4301      2.00000
      3      -0.6482      2.00000
      4      -0.6226      2.00000
      5      -0.2318      2.00000
      6      -0.0778      2.00000
      7      -0.0016      2.00000
      8       1.0761      2.00000
      9       1.2006      2.00000
     10       1.5356      2.00000
     11       2.7681      2.00000
     12       2.9320      2.00000
     13       3.1982      2.00000
     14       3.7185      1.99648
     15       3.7495      1.98789
     16       3.8106      1.86880
     17       4.2550      0.00000
     18       4.6685      0.00000
     19       4.8009      0.00000
     20       4.9372      0.00000
     21       5.0652      0.00000
     22       5.2535      0.00000
     23       5.8354      0.00000
     24       6.3060      0.00000
     25       6.3290      0.00000
     26       6.5685      0.00000

 k-point    11 :      -0.3750    0.1250    0.0000
  band No.  band energies     occupation 
      1      -2.4753      2.00000
      2      -1.0759      2.00000
      3      -1.0631      2.00000
      4      -0.6991      2.00000
      5      -0.1027      2.00000
      6       0.6355      2.00000
      7       0.7234      2.00000
      8       1.2088      2.00000
      9       1.3204      2.00000
     10       1.6954      2.00000
     11       2.7936      2.00000
     12       2.8436      2.00000
     13       2.8908      2.00000
     14       3.0610      2.00000
     15       3.3034      2.00000
     16       4.1983      0.00001
     17       4.2178      0.00000
     18       4.4113      0.00000
     19       4.4223      0.00000
     20       4.5269      0.00000
     21       4.9878      0.00000
     22       5.5849      0.00000
     23       5.6764      0.00000
     24       5.7658      0.00000
     25       5.7977      0.00000
     26       5.8102      0.00000

 k-point    12 :      -0.2500    0.1250    0.0000
  band No.  band energies     occupation 
      1      -2.7693      2.00000
      2      -1.3595      2.00000
      3      -1.3591      2.00000
      4       0.1700      2.00000
      5       0.1700      2.00000
      6       1.4812      2.00000
      7       1.4812      2.00000
      8       1.5795      2.00000
      9       1.5795      2.00000
     10       1.9908      2.00000
     11       1.9980      2.00000
     12       2.5245      2.00000
     13       2.9580      2.00000
     14       3.0206      2.00000
     15       3.1217      2.00000
     16       3.4829      2.00000
     17       3.4829      2.00000
     18       3.5927      1.99998
     19       3.8289      1.74543
     20       4.8752      0.00000
     21       4.8752      0.00000
     22       4.9786      0.00000
     23       4.9786      0.00000
     24       5.2441      0.00000
     25       5.2441      0.00000
     26       6.0321      0.00000

 k-point    13 :       0.0000    0.2500    0.0000
  band No.  band energies     occupation 
      1      -2.6840      2.00000
      2      -1.3010      2.00000
      3      -1.2494      2.00000
      4      -0.2714      2.00000
      5       0.7741      2.00000
      6       0.7741      2.00000
      7       1.0239      2.00000
      8       1.1733      2.00000
      9       2.0919      2.00000
     10       2.0919      2.00000
     11       2.1402      2.00000
     12       2.1402      2.00000
     13       2.5978      2.00000
     14       3.0799      2.00000
     15       3.0799      2.00000
     16       3.1074      2.00000
     17       4.2112      0.00000
     18       4.4327      0.00000
     19       4.4327      0.00000
     20       4.5834      0.00000
     21       4.5834      0.00000
     22       4.8226      0.00000
     23       5.6460      0.00000
     24       5.7829      0.00000
     25       5.8191      0.00000
     26       5.8912      0.00000

 k-point    14 :       0.1250    0.2500    0.0000
  band No.  band energies     occupation 
      1      -2.4574      2.00000
      2      -1.0841      2.00000
      3      -1.0197      2.00000
      4      -0.6465      2.00000
      5      -0.1548      2.00000
      6       0.6618      2.00000
      7       0.7998      2.00000
      8       1.1953      2.00000
      9       1.2326      2.00000
     10       1.5429      2.00000
     11       2.7625      2.00000
     12       2.8031      2.00000
     13       2.8212      2.00000
     14       2.8581      2.00000
     15       3.3268      2.00000
     16       4.1281      0.00009
     17       4.2846      0.00000
     18       4.2884      0.00000
     19       4.4421      0.00000
     20       4.6556      0.00000
     21       4.9488      0.00000
     22       5.7179      0.00000
     23       5.7715      0.00000
     24       5.7847      0.00000
     25       5.8767      0.00000
     26       5.9823      0.00000

 k-point    15 :       0.2500    0.2500    0.0000
  band No.  band energies     occupation 
      1      -2.0840      2.00000
      2      -0.9478      2.00000
      3      -0.8776      2.00000
      4      -0.7224      2.00000
      5      -0.6455      2.00000
      6       0.4226      2.00000
      7       0.4409      2.00000
      8       0.4478      2.00000
      9       0.5668      2.00000
     10       2.4400      2.00000
     11       2.5818      2.00000
     12       3.1440      2.00000
     13       3.4984      2.00000
     14       3.5631      1.99999
     15       3.6815      1.99920
     16       4.1256      0.00010
     17       4.2070      0.00000
     18       4.2463      0.00000
     19       4.2527      0.00000
     20       4.6122      0.00000
     21       4.6948      0.00000
     22       4.8106      0.00000
     23       6.1721      0.00000
     24       6.2887      0.00000
     25       6.3878      0.00000
     26       6.5267      0.00000

 k-point    16 :       0.3750    0.2500    0.0000
  band No.  band energies     occupation 
      1      -1.6008      2.00000
      2      -1.5654      2.00000
      3      -0.9635      2.00000
      4      -0.2176      2.00000
      5      -0.2141      2.00000
      6      -0.2014      2.00000
      7      -0.1285      2.00000
      8       0.3627      2.00000
      9       0.4762      2.00000
     10       2.5285      2.00000
     11       3.4664      2.00000
     12       3.6005      1.99997
     13       3.6205      1.99993
     14       3.6523      1.99975
     15       3.6685      1.99952
     16       3.7999      1.91230
     17       4.1123      0.00016
     18       4.1539      0.00003
     19       4.1718      0.00002
     20       4.6572      0.00000
     21       4.6831      0.00000
     22       4.7228      0.00000
     23       5.4200      0.00000
     24       5.5792      0.00000
     25       6.9264      0.00000
     26       7.4378      0.00000

 k-point    17 :       0.5000    0.2500    0.0000
  band No.  band energies     occupation 
      1      -2.1107      2.00000
      2      -0.9039      2.00000
      3      -0.9039      2.00000
      4      -0.7104      2.00000
      5      -0.7099      2.00000
      6       0.4277      2.00000
      7       0.4277      2.00000
      8       0.5285      2.00000
      9       0.5285      2.00000
     10       2.6166      2.00000
     11       2.6198      2.00000
     12       3.1293      2.00000
     13       3.5432      2.00000
     14       3.6478      1.99979
     15       3.7005      1.99828
     16       4.1981      0.00001
     17       4.2308      0.00000
     18       4.2308      0.00000
     19       4.4187      0.00000
     20       4.6072      0.00000
     21       4.6473      0.00000
     22       4.6473      0.00000
     23       6.1084      0.00000
     24       6.1084      0.00000
     25       6.1889      0.00000
     26       6.1982      0.00000

 k-point    18 :       0.0000    0.3750    0.0000
  band No.  band energies     occupation 
      1      -2.3030      2.00000
      2      -1.0938      2.00000
      3      -0.9383      2.00000
      4      -0.8612      2.00000
      5       0.2279      2.00000
      6       0.3542      2.00000
      7       0.5535      2.00000
      8       0.5535      2.00000
      9       1.8940      2.00000
     10       1.8940      2.00000
     11       1.9184      2.00000
     12       1.9184      2.00000
     13       2.9421      2.00000
     14       3.4759      2.00000
     15       3.9746      0.03947
     16       3.9746      0.03945
     17       4.0448      0.00243
     18       4.5099      0.00000
     19       5.3103      0.00000
     20       5.3103      0.00000
     21       5.4780      0.00000
     22       5.4780      0.00000
     23       5.6147      0.00000
[...]
     24       5.8503      0.00000
     25       6.0249      0.00000
     26       6.0533      0.00000

 k-point    69 :      -0.2500    0.1250    0.5000
  band No.  band energies     occupation 
      1      -2.4148      2.00000
      2      -2.4148      2.00000
      3       0.3735      2.00000
      4       0.3735      2.00000
      5       0.4880      2.00000
      6       0.4880      2.00000
      7       0.5384      2.00000
      8       0.5384      2.00000
      9       2.2731      2.00000
     10       2.2731      2.00000
     11       2.3700      2.00000
     12       2.3700      2.00000
     13       3.0547      2.00000
     14       3.0547      2.00000
     15       3.1759      2.00000
     16       3.1759      2.00000
     17       3.9835      0.02815
     18       3.9835      0.02814
     19       4.0616      0.00125
     20       4.0617      0.00125
     21       4.9103      0.00000
     22       4.9103      0.00000
     23       5.2039      0.00000
     24       5.2039      0.00000
     25       5.7811      0.00000
     26       5.7811      0.00000

 k-point    70 :       0.0000    0.2500    0.5000
  band No.  band energies     occupation 
      1      -2.3429      2.00000
      2      -2.3167      2.00000
      3       0.0357      2.00000
      4       0.1118      2.00000
      5       0.4182      2.00000
      6       0.4938      2.00000
      7       1.1016      2.00000
      8       1.1016      2.00000
      9       1.1264      2.00000
     10       1.1264      2.00000
     11       2.6539      2.00000
     12       2.8646      2.00000
     13       3.2506      2.00000
     14       3.2506      2.00000
     15       3.3101      2.00000
     16       3.3101      2.00000
     17       3.9677      0.05229
     18       3.9677      0.05228
     19       4.0600      0.00134
     20       4.0600      0.00134
     21       4.7249      0.00000
     22       4.8624      0.00000
     23       5.7987      0.00000
     24       5.9149      0.00000
     25       5.9933      0.00000
     26       5.9933      0.00000

 k-point    71 :       0.1250    0.2500    0.5000
  band No.  band energies     occupation 
      1      -2.1204      2.00000
      2      -2.0878      2.00000
      3      -0.3349      2.00000
      4      -0.2647      2.00000
      5       0.1804      2.00000
      6       0.1994      2.00000
      7       0.6278      2.00000
      8       0.7220      2.00000
      9       1.8681      2.00000
     10       1.8866      2.00000
     11       2.3133      2.00000
     12       2.5118      2.00000
     13       2.8449      2.00000
     14       2.8969      2.00000
     15       3.0281      2.00000
     16       3.1013      2.00000
     17       4.5881      0.00000
     18       4.6529      0.00000
     19       4.7909      0.00000
     20       4.8778      0.00000
     21       5.4643      0.00000
     22       5.5964      0.00000
     23       5.6090      0.00000
     24       5.8103      0.00000
     25       5.9836      0.00000
     26       6.1266      0.00000

 k-point    72 :       0.2500    0.2500    0.5000
  band No.  band energies     occupation 
      1      -1.7515      2.00000
      2      -1.7125      2.00000
      3      -0.6063      2.00000
      4      -0.5935      2.00000
      5      -0.5620      2.00000
      6      -0.4980      2.00000
      7       0.9792      2.00000
      8       1.0916      2.00000
      9       2.1034      2.00000
     10       2.1095      2.00000
     11       2.1459      2.00000
     12       2.2857      2.00000
     13       2.7586      2.00000
     14       2.7681      2.00000
     15       2.8627      2.00000
     16       2.9420      2.00000
     17       4.8626      0.00000
     18       4.9321      0.00000
     19       5.5449      0.00000
     20       5.6297      0.00000
     21       5.9285      0.00000
     22       6.1092      0.00000
     23       6.1394      0.00000
     24       6.2232      0.00000
     25       6.2876      0.00000
     26       6.3020      0.00000

 k-point    73 :       0.3750    0.2500    0.5000
  band No.  band energies     occupation 
      1      -1.2537      2.00000
      2      -1.2473      2.00000
      3      -1.2378      2.00000
      4      -1.1927      2.00000
      5      -0.6444      2.00000
      6      -0.5868      2.00000
      7       1.4703      2.00000
      8       1.4921      2.00000
      9       1.5106      2.00000
     10       1.6001      2.00000
     11       2.0306      2.00000
     12       2.1952      2.00000
     13       2.8082      2.00000
     14       2.8973      2.00000
     15       3.7444      1.99022
     16       3.7597      1.98206
     17       3.9226      0.28076
     18       4.0113      0.00935
     19       5.5844      0.00000
     20       5.8589      0.00000
     21       6.5814      0.00000
     22       6.6209      0.00000
     23       6.6467      0.00000
     24       6.6980      0.00000
     25       6.7007      0.00000
     26       6.7137      0.00000

 k-point    74 :       0.5000    0.2500    0.5000
  band No.  band energies     occupation 
      1      -1.7586      2.00000
      2      -1.7586      2.00000
      3      -0.5818      2.00000
      4      -0.5818      2.00000
      5      -0.5306      2.00000
      6      -0.5306      2.00000
      7       1.0098      2.00000
      8       1.0098      2.00000
      9       2.0963      2.00000
     10       2.0963      2.00000
     11       2.2421      2.00000
     12       2.2421      2.00000
     13       2.8912      2.00000
     14       2.8912      2.00000
     15       2.9864      2.00000
     16       2.9864      2.00000
     17       4.7820      0.00000
     18       4.7820      0.00000
     19       5.6386      0.00000
     20       5.6386      0.00000
     21       6.0842      0.00000
     22       6.0842      0.00000
     23       6.0856      0.00000
     24       6.0856      0.00000
     25       6.1237      0.00000
     26       6.1237      0.00000

 k-point    75 :       0.0000    0.3750    0.5000
  band No.  band energies     occupation 
      1      -1.9697      2.00000
      2      -1.9306      2.00000
      3      -0.7775      2.00000
      4      -0.7133      2.00000
      5       0.7676      2.00000
      6       0.8804      2.00000
      7       0.8886      2.00000
      8       0.8886      2.00000
      9       0.9011      2.00000
     10       0.9011      2.00000
     11       1.8956      2.00000
     12       2.0789      2.00000
     13       3.4711      2.00000
     14       3.4711      2.00000
     15       3.5041      2.00000
     16       3.5041      2.00000
     17       4.4579      0.00000
     18       4.4579      0.00000
     19       4.5517      0.00000
     20       4.5517      0.00000
     21       6.1023      0.00000
     22       6.1034      0.00000
     23       6.2108      0.00000
     24       6.2708      0.00000
     25       6.4225      0.00000
     26       6.4225      0.00000

 k-point    76 :       0.1250    0.3750    0.5000
  band No.  band energies     occupation 
      1      -1.6725      2.00000
      2      -1.6271      2.00000
      3      -1.0764      2.00000
      4      -1.0184      2.00000
      5       0.0386      2.00000
      6       0.0450      2.00000
      7       1.0495      2.00000
      8       1.1804      2.00000
      9       1.6139      2.00000
     10       1.7310      2.00000
     11       1.7372      2.00000
     12       1.7802      2.00000
     13       2.7307      2.00000
     14       2.7484      2.00000
     15       3.8791      0.96402
     16       3.9310      0.20904
     17       4.5214      0.00000
     18       4.5703      0.00000
     19       5.3272      0.00000
     20       5.4198      0.00000
     21       5.7325      0.00000
     22       5.8281      0.00000
     23       6.3394      0.00000
     24       6.5256      0.00000
     25       6.6298      0.00000
     26       6.6826      0.00000

 k-point    77 :       0.2500    0.3750    0.5000
  band No.  band energies     occupation 
      1      -1.2300      2.00000
      2      -1.2300      2.00000
      3      -1.1784      2.00000
      4      -1.1784      2.00000
      5      -0.6746      2.00000
      6      -0.6746      2.00000
      7       1.4717      2.00000
      8       1.4717      2.00000
      9       1.6200      2.00000
     10       1.6200      2.00000
     11       2.0565      2.00000
     12       2.0565      2.00000
     13       2.6992      2.00000
     14       2.6992      2.00000
     15       3.8684      1.17594
     16       3.8684      1.17585
     17       3.9842      0.02747
     18       3.9842      0.02746
     19       5.5882      0.00000
     20       5.5882      0.00000
     21       6.6204      0.00000
     22       6.6204      0.00000
     23       6.6619      0.00000
     24       6.6619      0.00000
     25       6.8379      0.00000
     26       6.8379      0.00000

 k-point    78 :       0.0000    0.5000    0.5000
  band No.  band energies     occupation 
      1      -1.4471      2.00000
      2      -1.4471      2.00000
      3      -1.3953      2.00000
      4      -1.3953      2.00000
      5       0.8215      2.00000
      6       0.8215      2.00000
      7       0.8215      2.00000
      8       0.8215      2.00000
      9       1.2616      2.00000
     10       1.2616      2.00000
     11       1.4105      2.00000
     12       1.4105      2.00000
     13       3.4583      2.00000
     14       3.4583      2.00000
     15       3.4583      2.00000
     16       3.4583      2.00000
     17       5.3842      0.00000
     18       5.3842      0.00000
     19       5.3842      0.00000
     20       5.3842      0.00000
     21       5.5881      0.00000
     22       5.5881      0.00000
     23       5.5881      0.00000
     24       5.5881      0.00000
     25       6.4886      0.00000
     26       6.4886      0.00000


--------------------------------------------------------------------------------------------------------


 soft charge-density along one line, spin component           1
         0         1         2         3         4         5         6         7         8         9
 total charge-density along one line

 pseudopotential strength for first ion, spin component:           1
  3.574  -0.018  -0.000  -0.000   0.000  -0.000   0.000   0.000
 -0.018  -0.008  -0.000   0.000   0.000   0.000  -0.000  -0.000
 -0.000  -0.000   0.712  -0.000   0.000  -0.026   0.000   0.000
 -0.000   0.000  -0.000   0.712   0.000   0.000  -0.026  -0.000
  0.000   0.000   0.000   0.000   0.712   0.000  -0.000  -0.026
 -0.000   0.000  -0.026   0.000   0.000  -0.038  -0.000  -0.000
  0.000  -0.000   0.000  -0.026  -0.000  -0.000  -0.038  -0.000
  0.000  -0.000   0.000  -0.000  -0.026  -0.000  -0.000  -0.038
 total augmentation occupancy for first ion, spin component:           1
  1.123  -0.042   0.001  -0.000  -0.000  -0.000   0.000   0.000
 -0.042   0.002  -0.000   0.000   0.000   0.000  -0.000  -0.000
  0.001  -0.000   0.721  -0.004  -0.000   0.038  -0.000  -0.000
 -0.000   0.000  -0.004   0.731   0.000  -0.000   0.039   0.000
 -0.000   0.000  -0.000   0.000   0.713  -0.000   0.000   0.038
 -0.000   0.000   0.038  -0.000  -0.000   0.002  -0.000  -0.000
  0.000  -0.000  -0.000   0.039   0.000  -0.000   0.002   0.000
  0.000  -0.000  -0.000   0.000   0.038  -0.000   0.000   0.002


------------------------ aborting loop because EDIFF is reached ----------------------------------------


    CHARGE:  cpu time    0.06: real time    0.06
    FORLOC:  cpu time    0.00: real time    0.00
    FORNL :  cpu time    0.25: real time    0.25
    STRESS:  cpu time    0.40: real time    0.40
    FORCOR:  cpu time    0.02: real time    0.02
    FORHAR:  cpu time    0.00: real time    0.01
    MIXING:  cpu time    0.00: real time    0.00
    OFIELD:  cpu time    0.00: real time    0.00

  FORCE on cell =-STRESS in cart. coord.  units (eV):
  Direction    XX          YY          ZZ          XY          YZ          ZX
  --------------------------------------------------------------------------------------
  Alpha Z   -11.84529   -11.84529   -11.84529
  Ewald    -157.76451  -156.10225  -151.78826     0.00010    -0.81712    -0.00000
  Hartree     0.29166     0.27738     0.35141    -0.00000     0.02396    -0.00000
  E(xc)     -72.85041   -72.91741   -73.00140     0.00000     0.04149     0.00000
  Local      14.85997    13.82374    10.13973    -0.00004     0.45932     0.00000
  n-local   125.13312   125.68964   126.61162    -0.36568    -0.32836     0.01065
  augment     1.57607     1.56405     1.54907     0.00000     0.00666    -0.00000
  Kinetic    98.09727    98.12033    97.20462    -8.38575    -0.00957     0.44572
  Fock        0.00000     0.00000     0.00000     0.00000     0.00000     0.00000
  -------------------------------------------------------------------------------------
  Total      -2.50213    -1.38980    -0.77850     0.00000    -0.62363     0.00000
  in kB     -10.73689    -5.96377    -3.34061     0.00000    -2.67606     0.00000
  external pressure =       -6.68 kB  Pullay stress =        0.00 kB


 VOLUME and BASIS-vectors are now :
 -----------------------------------------------------------------------------
  energy-cutoff  :      450.00
  volume of cell :      373.37
      direct lattice vectors                 reciprocal lattice vectors
     6.535093193 -0.000000026 -0.000000000     0.153020006  0.090122104 -0.000901221
    -3.267550309  5.548589649  0.055485896     0.000000001  0.180244004 -0.001802440
     0.000000000  0.102979729 10.297972898    -0.000000000 -0.000971162  0.097116201

  length of vectors
     6.535093193  6.439472867 10.298487783     0.177589212  0.180253015  0.097121057


 FORCES acting on ions
    electron-ion (+dipol)            ewald-force                    non-local-force                 convergence-correction
 -----------------------------------------------------------------------------------------------
   -.201E-04 0.553E-01 -.364E-02   0.503E-05 -.250E-01 0.476E-03   0.203E-07 -.304E-01 0.321E-02   0.114E-09 0.782E-07 -.657E-05
   -.201E-04 0.553E-01 -.364E-02   0.503E-05 -.250E-01 0.476E-03   0.203E-07 -.304E-01 0.321E-02   0.114E-09 0.782E-07 -.657E-05
   -.201E-04 0.553E-01 -.364E-02   0.493E-05 -.250E-01 0.476E-03   0.203E-07 -.304E-01 0.321E-02   0.114E-09 0.781E-07 -.657E-05
   -.201E-04 0.553E-01 -.364E-02   0.493E-05 -.250E-01 0.476E-03   0.203E-07 -.304E-01 0.321E-02   0.114E-09 0.781E-07 -.657E-05
   -.190E-04 0.553E-01 -.364E-02   0.344E-05 -.250E-01 0.476E-03   0.203E-07 -.304E-01 0.321E-02   -.155E-09 0.780E-07 -.657E-05
   -.190E-04 0.553E-01 -.364E-02   0.344E-05 -.250E-01 0.476E-03   0.203E-07 -.304E-01 0.321E-02   -.155E-09 0.780E-07 -.657E-05
   -.190E-04 0.553E-01 -.364E-02   0.334E-05 -.250E-01 0.476E-03   0.203E-07 -.304E-01 0.321E-02   -.155E-09 0.779E-07 -.657E-05
   -.190E-04 0.553E-01 -.364E-02   0.334E-05 -.250E-01 0.476E-03   0.203E-07 -.304E-01 0.321E-02   -.155E-09 0.779E-07 -.657E-05
   0.195E-04 -.553E-01 0.364E-02   -.411E-05 0.250E-01 -.476E-03   -.203E-07 0.304E-01 -.321E-02   0.858E-10 -.779E-07 0.657E-05
   0.195E-04 -.553E-01 0.364E-02   -.411E-05 0.250E-01 -.476E-03   -.203E-07 0.304E-01 -.321E-02   0.858E-10 -.779E-07 0.657E-05
   0.190E-04 -.553E-01 0.364E-02   -.394E-05 0.250E-01 -.476E-03   -.203E-07 0.304E-01 -.321E-02   0.857E-10 -.781E-07 0.657E-05
   0.190E-04 -.553E-01 0.364E-02   -.394E-05 0.250E-01 -.476E-03   -.203E-07 0.304E-01 -.321E-02   0.857E-10 -.781E-07 0.657E-05
   0.196E-04 -.553E-01 0.364E-02   -.443E-05 0.250E-01 -.476E-03   -.203E-07 0.304E-01 -.321E-02   -.447E-10 -.780E-07 0.657E-05
   0.196E-04 -.553E-01 0.364E-02   -.443E-05 0.250E-01 -.476E-03   -.203E-07 0.304E-01 -.321E-02   -.447E-10 -.780E-07 0.657E-05
   0.190E-04 -.553E-01 0.364E-02   -.426E-05 0.250E-01 -.476E-03   -.203E-07 0.304E-01 -.321E-02   -.446E-10 -.782E-07 0.657E-05
   0.190E-04 -.553E-01 0.364E-02   -.426E-05 0.250E-01 -.476E-03   -.203E-07 0.304E-01 -.321E-02   -.446E-10 -.782E-07 0.657E-05
 -----------------------------------------------------------------------------------------------
   -.230E-05 -.398E-05 0.135E-08   0.274E-15 -.191E-15 -.222E-14   0.239E-16 0.694E-17 -.434E-18   -.178E-13 0.508E-14 -.862E-14


 POSITION                                       TOTAL-FORCE (eV/Angst)
 -----------------------------------------------------------------------------------
     -0.00000      1.84969      1.30566         0.000000     -0.000029      0.000039
     -0.00000      1.90118      6.45465         0.000000     -0.000029      0.000039
     -1.63378      4.62398      1.33341         0.000000     -0.000029      0.000039
     -1.63378      4.67547      6.48239         0.000000     -0.000029      0.000039
      3.26754      1.84969      1.30566         0.000000     -0.000029      0.000039
      3.26754      1.90118      6.45465         0.000000     -0.000029      0.000039
      1.63377      4.62398      1.33341         0.000000     -0.000029      0.000039
      1.63377      4.67547      6.48239         0.000000     -0.000029      0.000039
      1.63377      0.97610      3.87107        -0.000000      0.000029     -0.000039
      1.63377      1.02759      9.02005        -0.000000      0.000029     -0.000039
     -0.00000      3.75039      3.89881        -0.000000      0.000029     -0.000039
     -0.00000      3.80188      9.04780        -0.000000      0.000029     -0.000039
      4.90132      0.97610      3.87107        -0.000000      0.000029     -0.000039
      4.90132      1.02759      9.02005        -0.000000      0.000029     -0.000039
      3.26755      3.75039      3.89881        -0.000000      0.000029     -0.000039
      3.26755      3.80188      9.04780        -0.000000      0.000029     -0.000039
 -----------------------------------------------------------------------------------
    total drift:                               -0.000002     -0.000004      0.000000


--------------------------------------------------------------------------------------------------------



  FREE ENERGIE OF THE ION-ELECTRON SYSTEM (eV)
  ---------------------------------------------------
  free  energy   TOTEN  =       -24.33369828 eV

  energy  without entropy=      -24.31931196  energy(sigma->0) =      -24.32650512

 d Force = 0.3338674E-06[ 0.794E-07, 0.588E-06]  d Energy = 0.1081762E-06 0.226E-06
 d Force = 0.5908866E-04[ 0.587E-04, 0.594E-04]  d Ewald  = 0.5908864E-04 0.264E-10


--------------------------------------------------------------------------------------------------------


    POTLOK:  cpu time    0.02: real time    0.03


--------------------------------------------------------------------------------------------------------




--------------------------------------------------------------------------------------------------------


  
 reached required accuracy - stopping structural energy minimisation
     LOOP+:  cpu time    2.96: real time    3.01
    4ORBIT:  cpu time    0.00: real time    0.00

 total amount of memory used by VASP on root node    47383. kBytes
========================================================================

   base      :      30000. kBytes
   nonl-proj :       3610. kBytes
   fftplans  :        978. kBytes
   grid      :       1368. kBytes
   one-center:          6. kBytes
   wavefun   :      11421. kBytes

  
  
 General timing and accounting informations for this job:
 ========================================================
  
                  Total CPU time used (sec):       66.732
                            User time (sec):       66.472
                          System time (sec):        0.260
                         Elapsed time (sec):       68.623
  
                   Maximum memory used (kb):       44728.
                   Average memory used (kb):           0.
  
                          Minor page faults:        11634
                          Major page faults:            0
                 Voluntary context switches:         3617
