Mg                                      
           1
     6.535093   -0.000000   -0.000000
    -3.267550    5.548590    0.055486
     0.000000    0.102980   10.297973
   Mg
  16
Direct configuration=     1
   0.16666649  0.33333349  0.12500000
   0.16666649  0.33333349  0.62500000
   0.16666649  0.83333349  0.12500000
   0.16666649  0.83333349  0.62500000
   0.66666651  0.33333349  0.12500000
   0.66666651  0.33333349  0.62500000
   0.66666651  0.83333349  0.12500000
   0.66666651  0.83333349  0.62500000
   0.33333349  0.16666649  0.37500000
   0.33333349  0.16666649  0.87500000
   0.33333349  0.66666651  0.37500000
   0.33333349  0.66666651  0.87500000
   0.83333349  0.16666649  0.37500000
   0.83333349  0.16666649  0.87500000
   0.83333349  0.66666651  0.37500000
   0.83333349  0.66666651  0.87500000
Direct configuration=     2
   0.16661952  0.33323955  0.12500722
   0.16661952  0.33323955  0.62500722
   0.16661952  0.83323955  0.12500722
   0.16661952  0.83323955  0.62500722
   0.66661954  0.33323955  0.12500722
   0.66661954  0.33323955  0.62500722
   0.66661954  0.83323955  0.12500722
   0.66661954  0.83323955  0.62500722
   0.33338046  0.16676043  0.37499278
   0.33338046  0.16676043  0.87499278
   0.33338046  0.66676045  0.37499278
   0.33338046  0.66676045  0.87499278
   0.83338046  0.16676043  0.37499278
   0.83338046  0.16676043  0.87499278
   0.83338046  0.66676045  0.37499278
   0.83338046  0.66676045  0.87499278
Direct configuration=     3
   0.16647862  0.33295774  0.12502888
   0.16647862  0.33295774  0.62502888
   0.16647862  0.83295774  0.12502888
   0.16647862  0.83295774  0.62502888
   0.66647863  0.33295774  0.12502888
   0.66647863  0.33295774  0.62502888
   0.66647863  0.83295774  0.12502888
   0.66647863  0.83295774  0.62502888
   0.33352137  0.16704225  0.37497112
   0.33352137  0.16704225  0.87497112
   0.33352137  0.66704226  0.37497112
   0.33352137  0.66704226  0.87497112
   0.83352137  0.16704225  0.37497112
   0.83352137  0.16704225  0.87497112
   0.83352137  0.66704226  0.37497112
   0.83352137  0.66704226  0.87497112
Direct configuration=     4
   0.16619680  0.33239411  0.12507220
   0.16619680  0.33239411  0.62507220
   0.16619680  0.83239411  0.12507220
   0.16619680  0.83239411  0.62507220
   0.66619682  0.33239411  0.12507220
   0.66619682  0.33239411  0.62507220
   0.66619682  0.83239411  0.12507220
   0.66619682  0.83239411  0.62507220
   0.33380318  0.16760587  0.37492780
   0.33380318  0.16760587  0.87492780
   0.33380318  0.66760589  0.37492780
   0.33380318  0.66760589  0.87492780
   0.83380318  0.16760587  0.37492780
   0.83380318  0.16760587  0.87492780
   0.83380318  0.66760589  0.37492780
   0.83380318  0.66760589  0.87492780
Direct configuration=     5
   0.16563317  0.33126685  0.12515883
   0.16563317  0.33126685  0.62515883
   0.16563317  0.83126685  0.12515883
   0.16563317  0.83126685  0.62515883
   0.66563319  0.33126685  0.12515883
   0.66563319  0.33126685  0.62515883
   0.66563319  0.83126685  0.12515883
   0.66563319  0.83126685  0.62515883
   0.33436681  0.16873313  0.37484117
   0.33436681  0.16873313  0.87484117
   0.33436681  0.66873315  0.37484117
   0.33436681  0.66873315  0.87484117
   0.83436681  0.16873313  0.37484117
   0.83436681  0.16873313  0.87484117
   0.83436681  0.66873315  0.37484117
   0.83436681  0.66873315  0.87484117
Direct configuration=     6
   0.16556550  0.33113150  0.12504413
   0.16556550  0.33113150  0.62504413
   0.16556550  0.83113150  0.12504413
   0.16556550  0.83113150  0.62504413
   0.66556551  0.33113150  0.12504413
   0.66556551  0.33113150  0.62504413
   0.66556551  0.83113150  0.12504413
   0.66556551  0.83113150  0.62504413
   0.33443449  0.16886848  0.37495587
   0.33443449  0.16886848  0.87495587
   0.33443449  0.66886850  0.37495587
   0.33443449  0.66886850  0.87495587
   0.83443449  0.16886848  0.37495587
   0.83443449  0.16886848  0.87495587
   0.83443449  0.66886850  0.37495587
   0.83443449  0.66886850  0.87495587
Direct configuration=     7
   0.16554156  0.33108363  0.12500356
   0.16554156  0.33108363  0.62500356
   0.16554156  0.83108363  0.12500356
   0.16554156  0.83108363  0.62500356
   0.66554157  0.33108363  0.12500356
   0.66554157  0.33108363  0.62500356
   0.66554157  0.83108363  0.12500356
   0.66554157  0.83108363  0.62500356
   0.33445843  0.16891636  0.37499644
   0.33445843  0.16891636  0.87499644
   0.33445843  0.66891637  0.37499644
   0.33445843  0.66891637  0.87499644
   0.83445843  0.16891636  0.37499644
   0.83445843  0.16891636  0.87499644
   0.83445843  0.66891637  0.37499644
   0.83445843  0.66891637  0.87499644
Direct configuration=     8
   0.16554136  0.33108322  0.12500322
   0.16554136  0.33108322  0.62500322
   0.16554136  0.83108322  0.12500322
   0.16554136  0.83108322  0.62500322
   0.66554137  0.33108322  0.12500322
   0.66554137  0.33108322  0.62500322
   0.66554137  0.83108322  0.12500322
   0.66554137  0.83108322  0.62500322
   0.33445863  0.16891677  0.37499678
   0.33445863  0.16891677  0.87499678
   0.33445863  0.66891678  0.37499678
   0.33445863  0.66891678  0.87499678
   0.83445863  0.16891677  0.37499678
   0.83445863  0.16891677  0.87499678
   0.83445863  0.66891678  0.37499678
   0.83445863  0.66891678  0.87499678
Direct configuration=     9
   0.16554095  0.33108240  0.12500252
   0.16554095  0.33108240  0.62500252
   0.16554095  0.83108240  0.12500252
   0.16554095  0.83108240  0.62500252
   0.66554096  0.33108240  0.12500252
   0.66554096  0.33108240  0.62500252
   0.66554096  0.83108240  0.12500252
   0.66554096  0.83108240  0.62500252
   0.33445904  0.16891759  0.37499748
   0.33445904  0.16891759  0.87499748
   0.33445904  0.66891760  0.37499748
   0.33445904  0.66891760  0.87499748
   0.83445904  0.16891759  0.37499748
   0.83445904  0.16891759  0.87499748
   0.83445904  0.66891760  0.37499748
   0.83445904  0.66891760  0.87499748
Direct configuration=    10
   0.16554013  0.33108076  0.12500113
   0.16554013  0.33108076  0.62500113
   0.16554013  0.83108076  0.12500113
   0.16554013  0.83108076  0.62500113
   0.66554014  0.33108076  0.12500113
   0.66554014  0.33108076  0.62500113
   0.66554014  0.83108076  0.12500113
   0.66554014  0.83108076  0.62500113
   0.33445986  0.16891923  0.37499887
   0.33445986  0.16891923  0.87499887
   0.33445986  0.66891924  0.37499887
   0.33445986  0.66891924  0.87499887
   0.83445986  0.16891923  0.37499887
   0.83445986  0.16891923  0.87499887
   0.83445986  0.66891924  0.37499887
   0.83445986  0.66891924  0.87499887
Direct configuration=    11
   0.16554070  0.33108191  0.12500210
   0.16554070  0.33108191  0.62500210
   0.16554070  0.83108191  0.12500210
   0.16554070  0.83108191  0.62500210
   0.66554071  0.33108191  0.12500210
   0.66554071  0.33108191  0.62500210
   0.66554071  0.83108191  0.12500210
   0.66554071  0.83108191  0.62500210
   0.33445929  0.16891808  0.37499790
   0.33445929  0.16891808  0.87499790
   0.33445929  0.66891809  0.37499790
   0.33445929  0.66891809  0.87499790
   0.83445929  0.16891808  0.37499790
   0.83445929  0.16891808  0.87499790
   0.83445929  0.66891809  0.37499790
   0.83445929  0.66891809  0.87499790
Direct configuration=    12
   0.16554064  0.33108178  0.12500200
   0.16554064  0.33108178  0.62500200
   0.16554064  0.83108178  0.12500200
   0.16554064  0.83108178  0.62500200
   0.66554065  0.33108178  0.12500200
   0.66554065  0.33108178  0.62500200
   0.66554065  0.83108178  0.12500200
   0.66554065  0.83108178  0.62500200
   0.33445935  0.16891821  0.37499800
   0.33445935  0.16891821  0.87499800
   0.33445935  0.66891822  0.37499800
   0.33445935  0.66891822  0.87499800
   0.83445935  0.16891821  0.37499800
   0.83445935  0.16891821  0.87499800
   0.83445935  0.66891822  0.37499800
   0.83445935  0.66891822  0.87499800
Direct configuration=    13
   0.16554038  0.33108127  0.12500157
   0.16554038  0.33108127  0.62500157
   0.16554038  0.83108127  0.12500157
   0.16554038  0.83108127  0.62500157
   0.66554040  0.33108127  0.12500157
   0.66554040  0.33108127  0.62500157
   0.66554040  0.83108127  0.12500157
   0.66554040  0.83108127  0.62500157
   0.33445960  0.16891872  0.37499843
   0.33445960  0.16891872  0.87499843
   0.33445960  0.66891873  0.37499843
   0.33445960  0.66891873  0.87499843
   0.83445960  0.16891872  0.37499843
   0.83445960  0.16891872  0.87499843
   0.83445960  0.66891873  0.37499843
   0.83445960  0.66891873  0.87499843
Direct configuration=    14
   0.16554050  0.33108151  0.12500177
   0.16554050  0.33108151  0.62500177
   0.16554050  0.83108151  0.12500177
   0.16554050  0.83108151  0.62500177
   0.66554051  0.33108151  0.12500177
   0.66554051  0.33108151  0.62500177
   0.66554051  0.83108151  0.12500177
   0.66554051  0.83108151  0.62500177
   0.33445949  0.16891848  0.37499823
   0.33445949  0.16891848  0.87499823
   0.33445949  0.66891849  0.37499823
   0.33445949  0.66891849  0.87499823
   0.83445949  0.16891848  0.37499823
   0.83445949  0.16891848  0.87499823
   0.83445949  0.66891849  0.37499823
   0.83445949  0.66891849  0.87499823
Direct configuration=    15
   0.16554057  0.33108164  0.12500188
   0.16554057  0.33108164  0.62500188
   0.16554057  0.83108164  0.12500188
   0.16554057  0.83108164  0.62500188
   0.66554058  0.33108164  0.12500188
   0.66554058  0.33108164  0.62500188
   0.66554058  0.83108164  0.12500188
   0.66554058  0.83108164  0.62500188
   0.33445942  0.16891834  0.37499812
   0.33445942  0.16891834  0.87499812
   0.33445942  0.66891836  0.37499812
   0.33445942  0.66891836  0.87499812
   0.83445942  0.16891834  0.37499812
   0.83445942  0.16891834  0.87499812
   0.83445942  0.66891836  0.37499812
   0.83445942  0.66891836  0.87499812
Direct configuration=    16
   0.16553379  0.33106808  0.12500281
   0.16553379  0.33106808  0.62500281
   0.16553379  0.83106808  0.12500281
   0.16553379  0.83106808  0.62500281
   0.66553380  0.33106808  0.12500281
   0.66553380  0.33106808  0.62500281
   0.66553380  0.83106808  0.12500281
   0.66553380  0.83106808  0.62500281
   0.33446620  0.16893191  0.37499719
   0.33446620  0.16893191  0.87499719
   0.33446620  0.66893192  0.37499719
   0.33446620  0.66893192  0.87499719
   0.83446620  0.16893191  0.37499719
   0.83446620  0.16893191  0.87499719
   0.83446620  0.66893192  0.37499719
   0.83446620  0.66893192  0.87499719
Direct configuration=    17
   0.16552057  0.33104164  0.12500462
   0.16552057  0.33104164  0.62500462
   0.16552057  0.83104164  0.12500462
   0.16552057  0.83104164  0.62500462
   0.66552058  0.33104164  0.12500462
   0.66552058  0.33104164  0.62500462
   0.66552058  0.83104164  0.12500462
   0.66552058  0.83104164  0.62500462
   0.33447942  0.16895835  0.37499538
   0.33447942  0.16895835  0.87499538
   0.33447942  0.66895836  0.37499538
   0.33447942  0.66895836  0.87499538
   0.83447942  0.16895835  0.37499538
   0.83447942  0.16895835  0.87499538
   0.83447942  0.66895836  0.37499538
   0.83447942  0.66895836  0.87499538
