       N       E                     dE             d eps       ncg     rms          rms(c)
DAV:   1     0.873447157277E+03    0.87345E+03   -0.83336E+04 23280   0.175E+03
DAV:   2    -0.194739731629E+03   -0.10682E+04   -0.10430E+04 28640   0.347E+02
DAV:   3    -0.250172761952E+03   -0.55433E+02   -0.55214E+02 27400   0.856E+01
DAV:   4    -0.250827770365E+03   -0.65501E+00   -0.65320E+00 27384   0.102E+01
DAV:   5    -0.250838730427E+03   -0.10960E-01   -0.10948E-01 27056   0.128E+00    0.295E+01
RMM:   6    -0.226417686013E+03    0.24421E+02   -0.11359E+02 23232   0.315E+01    0.803E+00
RMM:   7    -0.226349280135E+03    0.68406E-01   -0.22616E+00 23232   0.387E+00    0.548E+00
RMM:   8    -0.226381714884E+03   -0.32435E-01   -0.65670E-01 23232   0.401E+00    0.115E+00
RMM:   9    -0.226356063080E+03    0.25652E-01   -0.25376E-01 23232   0.150E+00    0.287E-01
RMM:  10    -0.226356812351E+03   -0.74927E-03   -0.60423E-03 23236   0.264E-01    0.287E-01
RMM:  11    -0.226354893892E+03    0.19185E-02   -0.10482E-02 23232   0.316E-01    0.236E-02
RMM:  12    -0.226354892372E+03    0.15204E-05   -0.67057E-05 23232   0.316E-02    0.680E-03
RMM:  13    -0.226354892569E+03   -0.19771E-06   -0.52010E-06 20158   0.800E-03
   1 F= -.22635489E+03 E0= -.22635489E+03  d E =-.226355E+03
       N       E                     dE             d eps       ncg     rms          rms(c)
DAV:   1    -0.226363332274E+03   -0.84399E-02   -0.20376E-01 27432   0.178E+00    0.932E-02
RMM:   2    -0.226363957102E+03   -0.62483E-03   -0.68246E-03 23232   0.295E-01    0.755E-02
RMM:   3    -0.226363803570E+03    0.15353E-03   -0.79589E-04 23232   0.897E-02    0.325E-02
RMM:   4    -0.226363789907E+03    0.13664E-04   -0.78716E-05 23232   0.273E-02    0.103E-02
RMM:   5    -0.226363789562E+03    0.34446E-06   -0.30315E-05 23144   0.157E-02    0.664E-03
RMM:   6    -0.226363789818E+03   -0.25558E-06   -0.25084E-05 23034   0.155E-02    0.845E-03
RMM:   7    -0.226363788482E+03    0.13353E-05   -0.11857E-05 22135   0.106E-02    0.171E-03
RMM:   8    -0.226363788357E+03    0.12488E-06   -0.13343E-07 13150   0.143E-03
   2 F= -.22636379E+03 E0= -.22636379E+03  d E =-.889579E-02
       N       E                     dE             d eps       ncg     rms          rms(c)
DAV:   1    -0.226366428563E+03   -0.26401E-02   -0.21813E-01 25392   0.184E+00    0.967E-02
RMM:   2    -0.226366917099E+03   -0.48854E-03   -0.60861E-03 23232   0.289E-01    0.481E-03
RMM:   3    -0.226366897463E+03    0.19636E-04   -0.86604E-05 23604   0.309E-02    0.343E-03
RMM:   4    -0.226366897843E+03   -0.38009E-06   -0.52994E-06 17361   0.757E-03
   3 F= -.22636690E+03 E0= -.22636690E+03  d E =-.120053E-01
       N       E                     dE             d eps       ncg     rms          rms(c)
DAV:   1    -0.226367343879E+03   -0.44642E-03   -0.23545E-01 25320   0.197E+00    0.635E-02
RMM:   2    -0.226368381415E+03   -0.10375E-02   -0.89338E-03 23232   0.335E-01    0.159E-01
RMM:   3    -0.226368021407E+03    0.36001E-03   -0.27951E-04 23232   0.578E-02    0.114E-01
RMM:   4    -0.226367753248E+03    0.26816E-03   -0.22638E-03 23232   0.141E-01    0.211E-02
RMM:   5    -0.226367748763E+03    0.44854E-05   -0.24316E-05 23231   0.151E-02    0.212E-02
RMM:   6    -0.226367738420E+03    0.10343E-04   -0.42354E-05 23230   0.200E-02    0.252E-03
RMM:   7    -0.226367738385E+03    0.35007E-07   -0.45756E-07 13727   0.215E-03
   4 F= -.22636774E+03 E0= -.22636774E+03  d E =-.840542E-03
       N       E                     dE             d eps       ncg     rms          rms(c)
DAV:   1    -0.226367749309E+03   -0.10889E-04   -0.16601E-02 26040   0.522E-01    0.169E-02
RMM:   2    -0.226367778231E+03   -0.28921E-04   -0.37293E-04 23232   0.717E-02    0.161E-03
RMM:   3    -0.226367777139E+03    0.10912E-05   -0.49398E-06 16903   0.722E-03    0.528E-04
RMM:   4    -0.226367777178E+03   -0.38314E-07   -0.37415E-07 13710   0.211E-03
   5 F= -.22636778E+03 E0= -.22636778E+03  d E =-.879334E-03
       N       E                     dE             d eps       ncg     rms          rms(c)
DAV:   1    -0.226367849708E+03   -0.72568E-04   -0.32754E-02 24856   0.727E-01    0.212E-02
RMM:   2    -0.226367988256E+03   -0.13855E-03   -0.10554E-03 23232   0.116E-01    0.583E-02
RMM:   3    -0.226367914367E+03    0.73889E-04   -0.15645E-04 23232   0.397E-02    0.230E-02
RMM:   4    -0.226367906128E+03    0.82390E-05   -0.63234E-05 23232   0.233E-02    0.452E-03
RMM:   5    -0.226367905919E+03    0.20897E-06   -0.11371E-06 13728   0.334E-03
   6 F= -.22636791E+03 E0= -.22636791E+03  d E =-.128742E-03
       N       E                     dE             d eps       ncg     rms          rms(c)
DAV:   1    -0.226367851010E+03    0.55119E-04   -0.73231E-02 24152   0.109E+00    0.318E-02
RMM:   2    -0.226367978757E+03   -0.12775E-03   -0.14254E-03 23232   0.142E-01    0.363E-03
RMM:   3    -0.226367976283E+03    0.24734E-05   -0.23843E-05 21551   0.145E-02    0.301E-03
RMM:   4    -0.226367976321E+03   -0.37467E-07   -0.97556E-07 13973   0.310E-03
   7 F= -.22636798E+03 E0= -.22636798E+03  d E =-.199143E-03
       N       E                     dE             d eps       ncg     rms          rms(c)
DAV:   1    -0.226367985981E+03   -0.96975E-05   -0.34191E-03 25944   0.232E-01    0.843E-03
RMM:   2    -0.226367993160E+03   -0.71787E-05   -0.81983E-05 23232   0.332E-02    0.420E-03
RMM:   3    -0.226367993719E+03   -0.55948E-06   -0.56860E-06 20558   0.765E-03    0.699E-03
RMM:   4    -0.226367992907E+03    0.81168E-06   -0.29319E-06 14074   0.552E-03
   8 F= -.22636799E+03 E0= -.22636799E+03  d E =-.165865E-04
       N       E                     dE             d eps       ncg     rms          rms(c)
DAV:   1    -0.226367993453E+03    0.26571E-06   -0.77336E-04 25544   0.110E-01    0.393E-03
