 vasp.5.3.5 31Mar14 (build Nov 12 2015 11:19:23) complex                         
 executed on           CrayXC_GCC date 2016.06.28  20:43:49
 running on   96 total cores
 distrk:  each k-point on   96 cores,    1 groups
 distr:  one band on NCORES_PER_BAND=  24 cores,    4 groups


--------------------------------------------------------------------------------------------------------


 INCAR:
 POTCAR:   PAW_GGA Al 05Jan2001                   
 POTCAR:   PAW_GGA O 05Jan2001                    

 ----------------------------------------------------------------------------- 
|                                                                             |
|           W    W    AA    RRRRR   N    N  II  N    N   GGGG   !!!           |
|           W    W   A  A   R    R  NN   N  II  NN   N  G    G  !!!           |
|           W    W  A    A  R    R  N N  N  II  N N  N  G       !!!           |
|           W WW W  AAAAAA  RRRRR   N  N N  II  N  N N  G  GGG   !            |
|           WW  WW  A    A  R   R   N   NN  II  N   NN  G    G                |
|           W    W  A    A  R    R  N    N  II  N    N   GGGG   !!!           |
|                                                                             |
|      For optimal performance we recommend to set                            |
|        NCORE= 4 - approx SQRT( number of cores)                             |
|      NCORE specifies how many cores store one orbital (NPAR=cpu/NCORE).     |
|      This setting can  greatly improve the performance of VASP for DFT.     |
|      The default, NPAR=number of cores might be grossly inefficient         |
|      on modern multi-core architectures or massively parallel machines.     |
|      Do your own testing !!!!                                               |
|      Unfortunately you need to use the default for GW and RPA calculations. |
|      (for HF NCORE is supported but not extensively tested yet)             |
|                                                                             |
 ----------------------------------------------------------------------------- 

 POTCAR:   PAW_GGA Al 05Jan2001                   
   VRHFIN =Al: s2p1                                                             
   LEXCH  = 91                                                                  
   EATOM  =    53.6910 eV,    3.9462 Ry                                         
                                                                                
   TITEL  = PAW_GGA Al 05Jan2001                                                
   LULTRA =        F    use ultrasoft PP ?                                      
   IUNSCR =        1    unscreen: 0-lin 1-nonlin 2-no                           
   RPACOR =    1.500    partial core radius                                     
   POMASS =   26.982; ZVAL   =    3.000    mass and valenz                      
   RCORE  =    1.900    outmost cutoff radius                                   
   RWIGS  =    2.650; RWIGS  =    1.402    wigner-seitz radius (au A)           
   ENMAX  =  240.437; ENMIN  =  180.327 eV                                      
   ICORE  =        2    local potential                                         
   LCOR   =        T    correct aug charges                                     
   LPAW   =        T    paw PP                                                  
   EAUG   =  291.052                                                            
   DEXC   =    -.017                                                            
   RMAX   =    2.974    core radius for proj-oper                               
   RAUG   =    1.300    factor for augmentation sphere                          
   RDEP   =    1.966    core radius for depl-charge                             
   QCUT   =   -4.204; QGAM   =    8.408    optimization parameters              
                                                                                
   Description                                                                  
     l     E      TYP  RCUT    TYP  RCUT                                        
     0   .000     23  1.900                                                     
     0   .000     23  1.900                                                     
     1   .000     23  1.900                                                     
     1  1.000     23  1.900                                                     
     2   .000      7  1.900                                                     
  local pseudopotential read in
  partial core-charges read in
  atomic valenz-charges read in
  non local Contribution for L=           0  read in
    real space projection operators read in
  non local Contribution for L=           0  read in
    real space projection operators read in
  non local Contribution for L=           1  read in
    real space projection operators read in
  non local Contribution for L=           1  read in
    real space projection operators read in
    PAW grid and wavefunctions read in

   number of l-projection  operators is LMAX  =           4
   number of lm-projection operators is LMMAX =           8

 POTCAR:   PAW_GGA O 05Jan2001                    
   VRHFIN =O: s2p4                                                              
   LEXCH  = 91                                                                  
   EATOM  =   433.0277 eV,   31.8266 Ry                                         
                                                                                
   TITEL  = PAW_GGA O 05Jan2001                                                 
   LULTRA =        F    use ultrasoft PP ?                                      
   IUNSCR =        0    unscreen: 0-lin 1-nonlin 2-no                           
   RPACOR =     .000    partial core radius                                     
   POMASS =   16.000; ZVAL   =    6.000    mass and valenz                      
   RCORE  =    1.520    outmost cutoff radius                                   
   RWIGS  =    1.550; RWIGS  =     .820    wigner-seitz radius (au A)           
   ENMAX  =  400.000; ENMIN  =  300.000 eV                                      
   ICORE  =        2    local potential                                         
   LCOR   =        T    correct aug charges                                     
   LPAW   =        T    paw PP                                                  
   EAUG   =  605.392                                                            
   DEXC   =     .000                                                            
   RMAX   =    2.264    core radius for proj-oper                               
   RAUG   =    1.300    factor for augmentation sphere                          
   RDEP   =    1.550    radius for radial grids                                 
   QCUT   =   -5.520; QGAM   =   11.040    optimization parameters              
                                                                                
   Description                                                                  
     l     E      TYP  RCUT    TYP  RCUT                                        
     0   .000     23  1.200                                                     
     0  -.700     23  1.200                                                     
     1   .000     23  1.520                                                     
     1   .600     23  1.520                                                     
     2   .000      7  1.500                                                     
  local pseudopotential read in
  atomic valenz-charges read in
  non local Contribution for L=           0  read in
    real space projection operators read in
  non local Contribution for L=           0  read in
    real space projection operators read in
  non local Contribution for L=           1  read in
    real space projection operators read in
  non local Contribution for L=           1  read in
    real space projection operators read in
    PAW grid and wavefunctions read in

   number of l-projection  operators is LMAX  =           4
   number of lm-projection operators is LMMAX =           8


 ----------------------------------------------------------------------------- 
|                                                                             |
|  ADVICE TO THIS USER RUNNING 'VASP/VAMP'   (HEAR YOUR MASTER'S VOICE ...):  |
|                                                                             |
|      You have a (more or less) 'large supercell' and for larger cells       |
|      it might be more efficient to use real space projection operators      |
|      So try LREAL= Auto  in the INCAR   file.                               |
|      Mind: If you want to do a very accurate calculations keep the          |
|      reciprocal projection scheme          (i.e. LREAL=.FALSE.)             |
|                                                                             |
 ----------------------------------------------------------------------------- 

 PAW_GGA Al 05Jan2001                   :
 energy of atom  1       EATOM=  -53.6910
 kinetic energy error for atom=    0.0002 (will be added to EATOM!!)
 PAW_GGA O 05Jan2001                    :
 energy of atom  2       EATOM= -433.0277
 kinetic energy error for atom=    0.0167 (will be added to EATOM!!)


 POSCAR: Al2O3_R-3cH                             
  positions in direct lattice
  No initial velocities read in
 exchange correlation table for  LEXCH =        7
   RHO(1)=    0.500       N(1)  =     2000
   RHO(2)=  100.500       N(2)  =     4000



--------------------------------------------------------------------------------------------------------


 ion  position               nearest neighbor table
   1  0.000  0.000  0.352-  26 1.87  30 1.88  28 1.89  15 2.00  13 2.01  17 2.02   3 2.73  10 2.79
                            10 2.82  10 2.84   7 3.24   7 3.26   7 3.28
   2  0.000  0.000  0.648-  19 1.87  23 1.88  21 1.89  16 2.00  14 2.01  18 2.02   4 2.73   5 2.79
                             5 2.82   5 2.84  12 3.24  12 3.26  12 3.28
   3  0.000  0.000  0.148-  24 1.87  22 1.88  20 1.89  15 2.00  13 2.01  17 2.02   1 2.73   8 2.79
                             8 2.82   8 2.84   9 3.24   9 3.26   9 3.28
   4  0.000  0.000  0.852-  29 1.87  27 1.88  25 1.89  16 2.00  14 2.01  18 2.02   2 2.73  11 2.79
                            11 2.82  11 2.84   6 3.24   6 3.26   6 3.28
   5  0.667  0.333  0.686-  14 1.87  18 1.88  16 1.89  21 2.00  19 2.01  23 2.02   7 2.73   2 2.79
                             2 2.82   2 2.84  11 3.24  11 3.26  11 3.28
   6  0.667  0.333  0.981-  25 1.87  29 1.88  27 1.89  22 2.00  20 2.01  24 2.02   8 2.73   9 2.79
                             9 2.82   9 2.84   4 3.24   4 3.26   4 3.28
   7  0.667  0.333  0.481-  30 1.87  28 1.88  26 1.89  21 2.00  19 2.01  23 2.02   5 2.73  12 2.79
                            12 2.82  12 2.84   1 3.24   1 3.26   1 3.28
   8  0.667  0.333  0.186-  17 1.87  15 1.88  13 1.89  22 2.00  20 2.01  24 2.02   6 2.73   3 2.79
                             3 2.82   3 2.84  10 3.24  10 3.26  10 3.28
   9  0.333  0.667  0.019-  20 1.87  24 1.88  22 1.89  27 2.00  25 2.01  29 2.02  11 2.73   6 2.79
                             6 2.82   6 2.84   3 3.24   3 3.26   3 3.28
  10  0.333  0.667  0.314-  13 1.87  17 1.88  15 1.89  28 2.00  26 2.01  30 2.02  12 2.73   1 2.79
                             1 2.82   1 2.84   8 3.24   8 3.26   8 3.28
  11  0.333  0.667  0.814-  18 1.87  16 1.88  14 1.89  27 2.00  25 2.01  29 2.02   9 2.73   4 2.79
                             4 2.82   4 2.84   5 3.24   5 3.26   5 3.28
  12  0.333  0.667  0.519-  23 1.87  21 1.88  19 1.89  28 2.00  26 2.01  30 2.02  10 2.73   7 2.79
                             7 2.82   7 2.84   2 3.24   2 3.26   2 3.28
  13  0.306  0.000  0.250-  10 1.87   8 1.89   1 2.01   3 2.01
  14  0.694  0.000  0.750-   5 1.87  11 1.89   2 2.01   4 2.01
  15  0.000  0.306  0.250-   8 1.88  10 1.89   1 2.00   3 2.00
  16  0.000  0.694  0.750-  11 1.88   5 1.89   2 2.00   4 2.00
  17  0.694  0.694  0.250-   8 1.87  10 1.88   1 2.02   3 2.02
  18  0.306  0.306  0.750-  11 1.87   5 1.88   2 2.02   4 2.02
  19  0.973  0.333  0.583-   2 1.87  12 1.89   7 2.01   5 2.01
  20  0.361  0.333  0.083-   9 1.87   3 1.89   8 2.01   6 2.01
  21  0.667  0.639  0.583-  12 1.88   2 1.89   7 2.00   5 2.00
  22  0.667  0.027  0.083-   3 1.88   9 1.89   8 2.00   6 2.00
  23  0.361  0.027  0.583-  12 1.87   2 1.88   7 2.02   5 2.02
  24  0.973  0.639  0.083-   3 1.87   9 1.88   8 2.02   6 2.02
  25  0.639  0.667  0.917-   6 1.87   4 1.89   9 2.01  11 2.01
  26  0.027  0.667  0.417-   1 1.87   7 1.89  12 2.01  10 2.01
  27  0.333  0.973  0.917-   4 1.88   6 1.89   9 2.00  11 2.00
  28  0.333  0.361  0.417-   7 1.88   1 1.89  12 2.00  10 2.00
  29  0.027  0.361  0.917-   4 1.87   6 1.88   9 2.02  11 2.02
  30  0.639  0.973  0.417-   7 1.87   1 1.88  12 2.02  10 2.02

  Warning from LATTYP: Monoclinic adjustement (A1->A3, A2->A1, A3->A2)!
  Warning from LATTYP: Got some problem with cell dimensions!
  Tried to take original basis but could not verify dimensions!
  LATTYP: Found a simple monoclinic cell.
 ALAT       =     4.8444293711
 B/A-ratio  =     2.7587726018
 C/A-ratio  =     1.7320508076
 COS(beta)  =    -0.8709397926
  
  Lattice vectors:
  
 A1 = (  -2.4429815587,  -4.1833404159,   0.0000000000)
 A2 = (   0.0000000000,   0.0000000000, -13.3646790205)
 A3 = (   7.2457581456,   4.2313681818,   0.0000000000)


Analysis of symmetry for initial positions (statically):
=====================================================================
 Subroutine PRICEL returns following result:
 
  LATTYP: Found a triclinic cell.
 ALAT       =     8.5210483408
 B/A-ratio  =     0.5587626886
 C/A-ratio  =     0.6173094439
 COS(alpha) =     0.0053175038
 COS(beta)  =     0.3599683740
 COS(gamma) =     0.8365027602
  
  Lattice vectors:
  
 A1 = (   4.7473188250,  -5.4977409858,  -4.4548931360)
 A2 = (   2.3597950282,  -4.1353126501,   0.0000000000)
 A3 = (  -2.4152525655,  -1.4104559787,  -4.4548927484)
 
   3 primitive cells build up your supercell.
 

 Routine SETGRP: Setting up the symmetry group for a 
 simple monoclinic supercell.


 Subroutine GETGRP returns: Found  2 space group operations
 (whereof  2 operations were pure point group operations)
 out of a pool of  4 trial point group operations.


The static configuration has the point symmetry S_2 .


Analysis of symmetry for dynamics (positions and initial velocities):
=====================================================================
 Subroutine PRICEL returns following result:
 
  LATTYP: Found a triclinic cell.
 ALAT       =     8.5210483408
 B/A-ratio  =     0.5587626886
 C/A-ratio  =     0.6173094439
 COS(alpha) =     0.0053175038
 COS(beta)  =     0.3599683740
 COS(gamma) =     0.8365027602
  
  Lattice vectors:
  
 A1 = (   4.7473188250,  -5.4977409858,  -4.4548931360)
 A2 = (   2.3597950282,  -4.1353126501,   0.0000000000)
 A3 = (  -2.4152525655,  -1.4104559787,  -4.4548927484)
 
   3 primitive cells build up your supercell.
 

 Routine SETGRP: Setting up the symmetry group for a 
 simple monoclinic supercell.


 Subroutine GETGRP returns: Found  2 space group operations
 (whereof  2 operations were pure point group operations)
 out of a pool of  4 trial point group operations.


The dynamic configuration has the point symmetry S_2 .


 KPOINTS: Automatic                               

Automatic generation of k-mesh.
Space group operators:
 irot       det(A)        alpha          n_x          n_y          n_z        tau_x        tau_y        tau_z
    1     1.000000     0.000000     1.000000     0.000000     0.000000    -0.000000    -0.000000    -0.000000
    2    -1.000000     0.000000     1.000000     0.000000     0.000000    -0.000000    -0.000000    -0.000000
 
 Subroutine IBZKPT returns following result:
 ===========================================
 
 Found    132 irreducible k-points:
 
 Following reciprocal coordinates:
            Coordinates               Weight
  0.000000  0.000000  0.000000      1.000000
  0.125000  0.000000  0.000000      2.000000
  0.250000  0.000000  0.000000      2.000000
  0.375000  0.000000  0.000000      2.000000
  0.500000  0.000000  0.000000      1.000000
  0.000000  0.125000  0.000000      2.000000
  0.125000  0.125000  0.000000      2.000000
  0.250000  0.125000  0.000000      2.000000
  0.375000  0.125000  0.000000      2.000000
  0.500000  0.125000  0.000000      2.000000
 -0.375000  0.125000  0.000000      2.000000
 -0.250000  0.125000  0.000000      2.000000
 -0.125000  0.125000  0.000000      2.000000
  0.000000  0.250000  0.000000      2.000000
  0.125000  0.250000  0.000000      2.000000
  0.250000  0.250000  0.000000      2.000000
  0.375000  0.250000  0.000000      2.000000
  0.500000  0.250000  0.000000      2.000000
 -0.375000  0.250000  0.000000      2.000000
 -0.250000  0.250000  0.000000      2.000000
 -0.125000  0.250000  0.000000      2.000000
  0.000000  0.375000  0.000000      2.000000
  0.125000  0.375000  0.000000      2.000000
  0.250000  0.375000  0.000000      2.000000
  0.375000  0.375000  0.000000      2.000000
  0.500000  0.375000  0.000000      2.000000
 -0.375000  0.375000  0.000000      2.000000
 -0.250000  0.375000  0.000000      2.000000
 -0.125000  0.375000  0.000000      2.000000
  0.000000  0.500000  0.000000      1.000000
  0.125000  0.500000  0.000000      2.000000
  0.250000  0.500000  0.000000      2.000000
  0.375000  0.500000  0.000000      2.000000
  0.500000  0.500000  0.000000      1.000000
  0.000000  0.000000  0.250000      2.000000
  0.125000  0.000000  0.250000      2.000000
  0.250000  0.000000  0.250000      2.000000
  0.375000  0.000000  0.250000      2.000000
  0.500000  0.000000  0.250000      2.000000
 -0.375000  0.000000  0.250000      2.000000
 -0.250000  0.000000  0.250000      2.000000
 -0.125000  0.000000  0.250000      2.000000
  0.000000  0.125000  0.250000      2.000000
  0.125000  0.125000  0.250000      2.000000
  0.250000  0.125000  0.250000      2.000000
  0.375000  0.125000  0.250000      2.000000
  0.500000  0.125000  0.250000      2.000000
 -0.375000  0.125000  0.250000      2.000000
 -0.250000  0.125000  0.250000      2.000000
 -0.125000  0.125000  0.250000      2.000000
  0.000000  0.250000  0.250000      2.000000
  0.125000  0.250000  0.250000      2.000000
  0.250000  0.250000  0.250000      2.000000
  0.375000  0.250000  0.250000      2.000000
  0.500000  0.250000  0.250000      2.000000
 -0.375000  0.250000  0.250000      2.000000
 -0.250000  0.250000  0.250000      2.000000
 -0.125000  0.250000  0.250000      2.000000
  0.000000  0.375000  0.250000      2.000000
  0.125000  0.375000  0.250000      2.000000
  0.250000  0.375000  0.250000      2.000000
  0.375000  0.375000  0.250000      2.000000
  0.500000  0.375000  0.250000      2.000000
 -0.375000  0.375000  0.250000      2.000000
 -0.250000  0.375000  0.250000      2.000000
 -0.125000  0.375000  0.250000      2.000000
  0.000000  0.500000  0.250000      2.000000
  0.125000  0.500000  0.250000      2.000000
  0.250000  0.500000  0.250000      2.000000
  0.375000  0.500000  0.250000      2.000000
  0.500000  0.500000  0.250000      2.000000
 -0.375000  0.500000  0.250000      2.000000
 -0.250000  0.500000  0.250000      2.000000
 -0.125000  0.500000  0.250000      2.000000
  0.000000 -0.375000  0.250000      2.000000
  0.125000 -0.375000  0.250000      2.000000
  0.250000 -0.375000  0.250000      2.000000
  0.375000 -0.375000  0.250000      2.000000
  0.500000 -0.375000  0.250000      2.000000
 -0.375000 -0.375000  0.250000      2.000000
 -0.250000 -0.375000  0.250000      2.000000
 -0.125000 -0.375000  0.250000      2.000000
  0.000000 -0.250000  0.250000      2.000000
  0.125000 -0.250000  0.250000      2.000000
  0.250000 -0.250000  0.250000      2.000000
  0.375000 -0.250000  0.250000      2.000000
  0.500000 -0.250000  0.250000      2.000000
 -0.375000 -0.250000  0.250000      2.000000
 -0.250000 -0.250000  0.250000      2.000000
 -0.125000 -0.250000  0.250000      2.000000
  0.000000 -0.125000  0.250000      2.000000
  0.125000 -0.125000  0.250000      2.000000
  0.250000 -0.125000  0.250000      2.000000
  0.375000 -0.125000  0.250000      2.000000
  0.500000 -0.125000  0.250000      2.000000
 -0.375000 -0.125000  0.250000      2.000000
 -0.250000 -0.125000  0.250000      2.000000
 -0.125000 -0.125000  0.250000      2.000000
  0.000000  0.000000  0.500000      1.000000
  0.125000  0.000000  0.500000      2.000000
  0.250000  0.000000  0.500000      2.000000
  0.375000  0.000000  0.500000      2.000000
  0.500000  0.000000  0.500000      1.000000
  0.000000  0.125000  0.500000      2.000000
  0.125000  0.125000  0.500000      2.000000
  0.250000  0.125000  0.500000      2.000000
  0.375000  0.125000  0.500000      2.000000
  0.500000  0.125000  0.500000      2.000000
 -0.375000  0.125000  0.500000      2.000000
 -0.250000  0.125000  0.500000      2.000000
 -0.125000  0.125000  0.500000      2.000000
  0.000000  0.250000  0.500000      2.000000
  0.125000  0.250000  0.500000      2.000000
  0.250000  0.250000  0.500000      2.000000
  0.375000  0.250000  0.500000      2.000000
  0.500000  0.250000  0.500000      2.000000
 -0.375000  0.250000  0.500000      2.000000
 -0.250000  0.250000  0.500000      2.000000
 -0.125000  0.250000  0.500000      2.000000
  0.000000  0.375000  0.500000      2.000000
  0.125000  0.375000  0.500000      2.000000
  0.250000  0.375000  0.500000      2.000000
  0.375000  0.375000  0.500000      2.000000
  0.500000  0.375000  0.500000      2.000000
 -0.375000  0.375000  0.500000      2.000000
 -0.250000  0.375000  0.500000      2.000000
 -0.125000  0.375000  0.500000      2.000000
  0.000000  0.500000  0.500000      1.000000
  0.125000  0.500000  0.500000      2.000000
  0.250000  0.500000  0.500000      2.000000
  0.375000  0.500000  0.500000      2.000000
  0.500000  0.500000  0.500000      1.000000
 
 Following cartesian coordinates:
            Coordinates               Weight
  0.000000  0.000000  0.000000      1.000000
  0.025879  0.014768  0.000000      2.000000
  0.051758  0.029535  0.000000      2.000000
  0.077637  0.044303  0.000000      2.000000
  0.103516  0.059071  0.000000      1.000000
 -0.000301  0.030056  0.000000      2.000000
  0.025578  0.044824  0.000000      2.000000
  0.051457  0.059591  0.000000      2.000000
  0.077336  0.074359  0.000000      2.000000
  0.103215  0.089127  0.000000      2.000000
 -0.077937 -0.014247  0.000000      2.000000
 -0.052058  0.000521  0.000000      2.000000
 -0.026179  0.015288  0.000000      2.000000
 -0.000601  0.060112  0.000000      2.000000
  0.025278  0.074880  0.000000      2.000000
  0.051157  0.089647  0.000000      2.000000
  0.077036  0.104415  0.000000      2.000000
  0.102915  0.119183  0.000000      2.000000
 -0.078238  0.015809  0.000000      2.000000
 -0.052359  0.030577  0.000000      2.000000
 -0.026480  0.045344  0.000000      2.000000
 -0.000902  0.090168  0.000000      2.000000
  0.024977  0.104936  0.000000      2.000000
  0.050856  0.119703  0.000000      2.000000
  0.076735  0.134471  0.000000      2.000000
  0.102614  0.149239  0.000000      2.000000
 -0.078538  0.045865  0.000000      2.000000
 -0.052660  0.060632  0.000000      2.000000
 -0.026781  0.075400  0.000000      2.000000
 -0.001202  0.120224  0.000000      1.000000
  0.024677  0.134991  0.000000      2.000000
  0.050556  0.149759  0.000000      2.000000
  0.076435  0.164527  0.000000      2.000000
  0.102314  0.179295  0.000000      1.000000
  0.000000  0.000000  0.018706      2.000000
  0.025879  0.014768  0.018706      2.000000
  0.051758  0.029535  0.018706      2.000000
  0.077637  0.044303  0.018706      2.000000
  0.103516  0.059071  0.018706      2.000000
 -0.077637 -0.044303  0.018706      2.000000
 -0.051758 -0.029535  0.018706      2.000000
 -0.025879 -0.014768  0.018706      2.000000
 -0.000301  0.030056  0.018706      2.000000
  0.025578  0.044824  0.018706      2.000000
  0.051457  0.059591  0.018706      2.000000
  0.077336  0.074359  0.018706      2.000000
  0.103215  0.089127  0.018706      2.000000
 -0.077937 -0.014247  0.018706      2.000000
 -0.052058  0.000521  0.018706      2.000000
 -0.026179  0.015288  0.018706      2.000000
 -0.000601  0.060112  0.018706      2.000000
  0.025278  0.074880  0.018706      2.000000
  0.051157  0.089647  0.018706      2.000000
  0.077036  0.104415  0.018706      2.000000
  0.102915  0.119183  0.018706      2.000000
 -0.078238  0.015809  0.018706      2.000000
 -0.052359  0.030577  0.018706      2.000000
 -0.026480  0.045344  0.018706      2.000000
 -0.000902  0.090168  0.018706      2.000000
  0.024977  0.104936  0.018706      2.000000
  0.050856  0.119703  0.018706      2.000000
  0.076735  0.134471  0.018706      2.000000
  0.102614  0.149239  0.018706      2.000000
 -0.078538  0.045865  0.018706      2.000000
 -0.052660  0.060632  0.018706      2.000000
 -0.026781  0.075400  0.018706      2.000000
 -0.001202  0.120224  0.018706      2.000000
  0.024677  0.134991  0.018706      2.000000
  0.050556  0.149759  0.018706      2.000000
  0.076435  0.164527  0.018706      2.000000
  0.102314  0.179295  0.018706      2.000000
 -0.078839  0.075921  0.018706      2.000000
 -0.052960  0.090688  0.018706      2.000000
 -0.027081  0.105456  0.018706      2.000000
  0.000902 -0.090168  0.018706      2.000000
  0.026781 -0.075400  0.018706      2.000000
  0.052660 -0.060632  0.018706      2.000000
  0.078538 -0.045865  0.018706      2.000000
  0.104417 -0.031097  0.018706      2.000000
 -0.076735 -0.134471  0.018706      2.000000
 -0.050856 -0.119703  0.018706      2.000000
 -0.024977 -0.104936  0.018706      2.000000
  0.000601 -0.060112  0.018706      2.000000
  0.026480 -0.045344  0.018706      2.000000
  0.052359 -0.030577  0.018706      2.000000
  0.078238 -0.015809  0.018706      2.000000
  0.104117 -0.001041  0.018706      2.000000
 -0.077036 -0.104415  0.018706      2.000000
 -0.051157 -0.089647  0.018706      2.000000
 -0.025278 -0.074880  0.018706      2.000000
  0.000301 -0.030056  0.018706      2.000000
  0.026179 -0.015288  0.018706      2.000000
  0.052058 -0.000521  0.018706      2.000000
  0.077937  0.014247  0.018706      2.000000
  0.103816  0.029015  0.018706      2.000000
 -0.077336 -0.074359  0.018706      2.000000
 -0.051457 -0.059591  0.018706      2.000000
 -0.025578 -0.044824  0.018706      2.000000
  0.000000  0.000000  0.037412      1.000000
  0.025879  0.014768  0.037412      2.000000
  0.051758  0.029535  0.037412      2.000000
  0.077637  0.044303  0.037412      2.000000
  0.103516  0.059071  0.037412      1.000000
 -0.000301  0.030056  0.037412      2.000000
  0.025578  0.044824  0.037412      2.000000
  0.051457  0.059591  0.037412      2.000000
  0.077336  0.074359  0.037412      2.000000
  0.103215  0.089127  0.037412      2.000000
 -0.077937 -0.014247  0.037412      2.000000
 -0.052058  0.000521  0.037412      2.000000
 -0.026179  0.015288  0.037412      2.000000
 -0.000601  0.060112  0.037412      2.000000
  0.025278  0.074880  0.037412      2.000000
  0.051157  0.089647  0.037412      2.000000
  0.077036  0.104415  0.037412      2.000000
  0.102915  0.119183  0.037412      2.000000
 -0.078238  0.015809  0.037412      2.000000
 -0.052359  0.030577  0.037412      2.000000
 -0.026480  0.045344  0.037412      2.000000
 -0.000902  0.090168  0.037412      2.000000
  0.024977  0.104936  0.037412      2.000000
  0.050856  0.119703  0.037412      2.000000
  0.076735  0.134471  0.037412      2.000000
  0.102614  0.149239  0.037412      2.000000
 -0.078538  0.045865  0.037412      2.000000
 -0.052660  0.060632  0.037412      2.000000
 -0.026781  0.075400  0.037412      2.000000
 -0.001202  0.120224  0.037412      1.000000
  0.024677  0.134991  0.037412      2.000000
  0.050556  0.149759  0.037412      2.000000
  0.076435  0.164527  0.037412      2.000000
  0.102314  0.179295  0.037412      1.000000
 


--------------------------------------------------------------------------------------------------------




 Dimension of arrays:
   k-points           NKPTS =    132   k-points in BZ     NKDIM =    132   number of bands    NBANDS=     88
   number of dos      NEDOS =    301   number of ions     NIONS =     30
   non local maximal  LDIM  =      4   non local SUM 2l+1 LMDIM =      8
   total plane-waves  NPLWV =  72000
   max r-space proj   IRMAX =      1   max aug-charges    IRDMAX=  10695
   dimension x,y,z NGX =    30 NGY =   30 NGZ =   80
   dimension x,y,z NGXF=    60 NGYF=   60 NGZF=  160
   support grid    NGXF=    60 NGYF=   60 NGZF=  160
   ions per type =              12  18
 NGX,Y,Z   is equivalent  to a cutoff of  10.38, 10.47,  9.95 a.u.
 NGXF,Y,Z  is equivalent  to a cutoff of  20.77, 20.95, 19.90 a.u.


 I would recommend the setting:
   dimension x,y,z NGX =    29 NGY =   29 NGZ =   80
 SYSTEM =  AlO                                     
 POSCAR =  Al2O3_R-3cH                             

 Startparameter for this run:
   NWRITE =      2    write-flag & timer
   PREC   = n         normal or accurate (medium, high low for compatibility)
   ISTART =      0    job   : 0-new  1-cont  2-samecut
   ICHARG =      2    charge: 1-file 2-atom 10-const
   ISPIN  =      1    spin polarized calculation?
   LNONCOLLINEAR =      F non collinear calculations
   LSORBIT =      F    spin-orbit coupling
   INIWAV =      1    electr: 0-lowe 1-rand  2-diag
   LASPH  =      F    aspherical Exc in radial PAW
   METAGGA=      F    non-selfconsistent MetaGGA calc.

 Electronic Relaxation 1
   ENCUT  =  600.0 eV  44.10 Ry    6.64 a.u.   9.59  9.51 26.69*2*pi/ulx,y,z
   ENINI  =  600.0     initial cutoff
   ENAUG  =  605.4 eV  augmentation charge cutoff
   NELM   =     40;   NELMIN=  4; NELMDL= -5     # of ELM steps 
   EDIFF  = 0.1E-05   stopping-criterion for ELM
   LREAL  =      F    real-space projection
   NLSPLINE    = F    spline interpolate recip. space projectors
   LCOMPAT=      F    compatible to vasp.4.4
   GGA_COMPAT  = T    GGA compatible to vasp.4.4-vasp.4.6
   LMAXPAW     = -100 max onsite density
   LMAXMIX     =    2 max onsite mixed and CHGCAR
   VOSKOWN=      0    Vosko Wilk Nusair interpolation
   ROPT   =    0.00000   0.00000
 Ionic relaxation
   EDIFFG = -.1E-03   stopping-criterion for IOM
   NSW    =    100    number of steps for IOM
   NBLOCK =      1;   KBLOCK =    100    inner block; outer block 
   IBRION =      2    ionic relax: 0-MD 1-quasi-New 2-CG
   NFREE  =      1    steps in history (QN), initial steepest desc. (CG)
   ISIF   =      2    stress and relaxation
   IWAVPR =     11    prediction:  0-non 1-charg 2-wave 3-comb
   ISYM   =      2    0-nonsym 1-usesym 2-fastsym
   LCORR  =      T    Harris-Foulkes like correction to forces

   POTIM  = 0.3000    time-step for ionic-motion
   TEIN   =    0.0    initial temperature
   TEBEG  =    0.0;   TEEND  =   0.0 temperature during run
   SMASS  =  -3.00    Nose mass-parameter (am)
   estimated Nose-frequenzy (Omega)   =  0.10E-29 period in steps =****** mass=  -0.527E-27a.u.
   SCALEE = 1.0000    scale energy and forces
   NPACO  =    256;   APACO  = 16.0  distance and # of slots for P.C.
   PSTRESS=    0.0 pullay stress

  Mass of Ions in am
   POMASS =  26.98 16.00
  Ionic Valenz
   ZVAL   =   3.00  6.00
  Atomic Wigner-Seitz radii
   RWIGS  =  -1.00 -1.00
  virtual crystal weights 
   VCA    =   1.00  1.00
   NELECT =     144.0000    total number of electrons
   NUPDOWN=      -1.0000    fix difference up-down

 DOS related values:
   EMIN   =  10.00;   EMAX   =-10.00  energy-range for DOS
   EFERMI =   0.00
   ISMEAR =    -1;   SIGMA  =   0.03  broadening in eV -4-tet -1-fermi 0-gaus

 Electronic relaxation 2 (details)
   IALGO  =     68    algorithm
   LDIAG  =      T    sub-space diagonalisation (order eigenvalues)
   LSUBROT=      F    optimize rotation matrix (better conditioning)
   TURBO    =      0    0=normal 1=particle mesh
   IRESTART =      0    0=no restart 2=restart with 2 vectors
   NREBOOT  =      0    no. of reboots
   NMIN     =      0    reboot dimension
   EREF     =   0.00    reference energy to select bands
   IMIX   =      4    mixing-type and parameters
     AMIX     =   0.40;   BMIX     =  1.00
     AMIX_MAG =   1.60;   BMIX_MAG =  1.00
     AMIN     =   0.10
     WC   =   100.;   INIMIX=   1;  MIXPRE=   1;  MAXMIX=  40

 Intra band minimization:
   WEIMIN = 0.0010     energy-eigenvalue tresh-hold
   EBREAK =  0.28E-08  absolut break condition
   DEPER  =   0.30     relativ break condition  

   TIME   =   0.40     timestep for ELM

  volume/ion in A,a.u.               =       8.90        60.05
  Fermi-wavevector in a.u.,A,eV,Ry     =   1.332658  2.518359 24.163652  1.775978
  Thomas-Fermi vector in A             =   2.461576

 Write flags
   LWAVE  =      F    write WAVECAR
   LCHARG =      F    write CHGCAR
   LVTOT  =      F    write LOCPOT, total local potential
   LVHAR  =      F    write LOCPOT, Hartree potential only
   LELF   =      F    write electronic localiz. function (ELF)
   LORBIT =      0    0 simple, 1 ext, 2 COOP (PROOUT)


 Dipole corrections
   LMONO  =      F    monopole corrections only (constant potential shift)
   LDIPOL =      F    correct potential (dipole corrections)
   IDIPOL =      0    1-x, 2-y, 3-z, 4-all directions 
   EPSILON=  1.0000000 bulk dielectric constant

 Exchange correlation treatment:
   GGA     =    91    GGA type
   LEXCH   =     7    internal setting for exchange type
   VOSKOWN=      0    Vosko Wilk Nusair interpolation
   LHFCALC =     F    Hartree Fock is set to
   LHFONE  =     F    Hartree Fock one center treatment
   AEXX    =    0.0000 exact exchange contribution

 Linear response parameters
   LEPSILON=     F    determine dielectric tensor
   LRPA    =     F    only Hartree local field effects (RPA)
   LNABLA  =     F    use nabla operator in PAW spheres
   LVEL    =     F    velocity operator in full k-point grid
   LINTERFAST=   F  fast interpolation
   KINTER  =     0    interpolate to denser k-point grid
   CSHIFT  =0.1000    complex shift for real part using Kramers Kronig
   OMEGAMAX=  -1.0    maximum frequency
   DEG_THRESHOLD= 0.2000000E-02 threshold for treating states as degnerate
   RTIME   =    0.100 relaxation time in fs

 Orbital magnetization related:
   ORBITALMAG=     F  switch on orbital magnetization
   LCHIMAG   =     F  perturbation theory with respect to B field
   DQ        =  0.001000  dq finite difference perturbation B field



--------------------------------------------------------------------------------------------------------


 conjugate gradient relaxation of ions
 charge density and potential will be updated during run
 non-spin polarized calculation
 RMM-DIIS sequential band-by-band and
  variant of blocked Davidson during initial phase
 perform sub-space diagonalisation
    before iterative eigenvector-optimisation
 modified Broyden-mixing scheme, WC =      100.0
 initial mixing is a Kerker type mixing with AMIX =  0.4000 and BMIX =      1.0000
 Hartree-type preconditioning will be used
 using additional bands           16
 reciprocal scheme for non local part
 use partial core corrections
 calculate Harris-corrections to forces   (improved forces if not selfconsistent)
 use gradient corrections 
 use of overlap-Matrix (Vanderbilt PP)
 Fermi-smearing in eV        SIGMA  =   0.03


--------------------------------------------------------------------------------------------------------


  energy-cutoff  :      600.00
  volume of cell :      266.95
      direct lattice vectors                 reciprocal lattice vectors
     4.802776587  0.048027766  0.000000000     0.207031477  0.118141454 -0.000000000
    -2.359795028  4.135312650  0.000000000    -0.002404476  0.240447583  0.000000000
     0.000000000  0.000000000 13.364679020     0.000000000 -0.000000000  0.074824094

  length of vectors
     4.803016720  4.761243880 13.364679020     0.238368277  0.240459605  0.074824094



 k-points in units of 2pi/SCALE and weight: Automatic                               
   0.00000000  0.00000000  0.00000000       0.004
   0.02587893  0.01476768  0.00000000       0.008
   0.05175787  0.02953536  0.00000000       0.008
   0.07763680  0.04430305  0.00000000       0.008
   0.10351574  0.05907073  0.00000000       0.004
  -0.00030056  0.03005595  0.00000000       0.008
   0.02557838  0.04482363  0.00000000       0.008
   0.05145731  0.05959131  0.00000000       0.008
   0.07733624  0.07435899  0.00000000       0.008
   0.10321518  0.08912667  0.00000000       0.008
  -0.07793736 -0.01424710  0.00000000       0.008
  -0.05205843  0.00052058  0.00000000       0.008
  -0.02617949  0.01528827  0.00000000       0.008
  -0.00060112  0.06011190  0.00000000       0.008
   0.02527782  0.07487958  0.00000000       0.008
   0.05115675  0.08964726  0.00000000       0.008
   0.07703568  0.10441494  0.00000000       0.008
   0.10291462  0.11918262  0.00000000       0.008
  -0.07823792  0.01580885  0.00000000       0.008
  -0.05235899  0.03057653  0.00000000       0.008
  -0.02648005  0.04534421  0.00000000       0.008
  -0.00090168  0.09016784  0.00000000       0.008
   0.02497726  0.10493553  0.00000000       0.008
   0.05085619  0.11970321  0.00000000       0.008
   0.07673513  0.13447089  0.00000000       0.008
   0.10261406  0.14923857  0.00000000       0.008
  -0.07853848  0.04586480  0.00000000       0.008
  -0.05265955  0.06063248  0.00000000       0.008
  -0.02678061  0.07540016  0.00000000       0.008
  -0.00120224  0.12022379  0.00000000       0.004
   0.02467670  0.13499147  0.00000000       0.008
   0.05055563  0.14975915  0.00000000       0.008
   0.07643457  0.16452684  0.00000000       0.008
   0.10231350  0.17929452  0.00000000       0.004
   0.00000000  0.00000000  0.01870602       0.008
   0.02587893  0.01476768  0.01870602       0.008
   0.05175787  0.02953536  0.01870602       0.008
   0.07763680  0.04430305  0.01870602       0.008
   0.10351574  0.05907073  0.01870602       0.008
  -0.07763680 -0.04430305  0.01870602       0.008
  -0.05175787 -0.02953536  0.01870602       0.008
  -0.02587893 -0.01476768  0.01870602       0.008
  -0.00030056  0.03005595  0.01870602       0.008
   0.02557838  0.04482363  0.01870602       0.008
   0.05145731  0.05959131  0.01870602       0.008
   0.07733624  0.07435899  0.01870602       0.008
   0.10321518  0.08912667  0.01870602       0.008
  -0.07793736 -0.01424710  0.01870602       0.008
  -0.05205843  0.00052058  0.01870602       0.008
  -0.02617949  0.01528827  0.01870602       0.008
  -0.00060112  0.06011190  0.01870602       0.008
   0.02527782  0.07487958  0.01870602       0.008
   0.05115675  0.08964726  0.01870602       0.008
   0.07703568  0.10441494  0.01870602       0.008
   0.10291462  0.11918262  0.01870602       0.008
  -0.07823792  0.01580885  0.01870602       0.008
  -0.05235899  0.03057653  0.01870602       0.008
  -0.02648005  0.04534421  0.01870602       0.008
  -0.00090168  0.09016784  0.01870602       0.008
   0.02497726  0.10493553  0.01870602       0.008
   0.05085619  0.11970321  0.01870602       0.008
   0.07673513  0.13447089  0.01870602       0.008
   0.10261406  0.14923857  0.01870602       0.008
  -0.07853848  0.04586480  0.01870602       0.008
  -0.05265955  0.06063248  0.01870602       0.008
  -0.02678061  0.07540016  0.01870602       0.008
  -0.00120224  0.12022379  0.01870602       0.008
   0.02467670  0.13499147  0.01870602       0.008
   0.05055563  0.14975915  0.01870602       0.008
   0.07643457  0.16452684  0.01870602       0.008
   0.10231350  0.17929452  0.01870602       0.008
  -0.07883904  0.07592075  0.01870602       0.008
  -0.05296011  0.09068843  0.01870602       0.008
  -0.02708117  0.10545611  0.01870602       0.008
   0.00090168 -0.09016784  0.01870602       0.008
   0.02678061 -0.07540016  0.01870602       0.008
   0.05265955 -0.06063248  0.01870602       0.008
   0.07853848 -0.04586480  0.01870602       0.008
   0.10441742 -0.03109712  0.01870602       0.008
  -0.07673513 -0.13447089  0.01870602       0.008
  -0.05085619 -0.11970321  0.01870602       0.008
  -0.02497726 -0.10493553  0.01870602       0.008
   0.00060112 -0.06011190  0.01870602       0.008
   0.02648005 -0.04534421  0.01870602       0.008
   0.05235899 -0.03057653  0.01870602       0.008
   0.07823792 -0.01580885  0.01870602       0.008
   0.10411686 -0.00104117  0.01870602       0.008
  -0.07703568 -0.10441494  0.01870602       0.008
  -0.05115675 -0.08964726  0.01870602       0.008
  -0.02527782 -0.07487958  0.01870602       0.008
   0.00030056 -0.03005595  0.01870602       0.008
   0.02617949 -0.01528827  0.01870602       0.008
   0.05205843 -0.00052058  0.01870602       0.008
   0.07793736  0.01424710  0.01870602       0.008
   0.10381630  0.02901478  0.01870602       0.008
  -0.07733624 -0.07435899  0.01870602       0.008
  -0.05145731 -0.05959131  0.01870602       0.008
  -0.02557838 -0.04482363  0.01870602       0.008
   0.00000000  0.00000000  0.03741205       0.004
   0.02587893  0.01476768  0.03741205       0.008
   0.05175787  0.02953536  0.03741205       0.008
   0.07763680  0.04430305  0.03741205       0.008
   0.10351574  0.05907073  0.03741205       0.004
  -0.00030056  0.03005595  0.03741205       0.008
   0.02557838  0.04482363  0.03741205       0.008
   0.05145731  0.05959131  0.03741205       0.008
   0.07733624  0.07435899  0.03741205       0.008
   0.10321518  0.08912667  0.03741205       0.008
  -0.07793736 -0.01424710  0.03741205       0.008
  -0.05205843  0.00052058  0.03741205       0.008
  -0.02617949  0.01528827  0.03741205       0.008
  -0.00060112  0.06011190  0.03741205       0.008
   0.02527782  0.07487958  0.03741205       0.008
   0.05115675  0.08964726  0.03741205       0.008
   0.07703568  0.10441494  0.03741205       0.008
   0.10291462  0.11918262  0.03741205       0.008
  -0.07823792  0.01580885  0.03741205       0.008
  -0.05235899  0.03057653  0.03741205       0.008
  -0.02648005  0.04534421  0.03741205       0.008
  -0.00090168  0.09016784  0.03741205       0.008
   0.02497726  0.10493553  0.03741205       0.008
   0.05085619  0.11970321  0.03741205       0.008
   0.07673513  0.13447089  0.03741205       0.008
   0.10261406  0.14923857  0.03741205       0.008
  -0.07853848  0.04586480  0.03741205       0.008
  -0.05265955  0.06063248  0.03741205       0.008
  -0.02678061  0.07540016  0.03741205       0.008
  -0.00120224  0.12022379  0.03741205       0.004
   0.02467670  0.13499147  0.03741205       0.008
   0.05055563  0.14975915  0.03741205       0.008
   0.07643457  0.16452684  0.03741205       0.008
   0.10231350  0.17929452  0.03741205       0.004

 k-points in reciprocal lattice and weights: Automatic                               
   0.00000000  0.00000000  0.00000000       0.004
   0.12500000  0.00000000  0.00000000       0.008
   0.25000000  0.00000000  0.00000000       0.008
   0.37500000  0.00000000  0.00000000       0.008
   0.50000000  0.00000000  0.00000000       0.004
   0.00000000  0.12500000  0.00000000       0.008
   0.12500000  0.12500000  0.00000000       0.008
   0.25000000  0.12500000  0.00000000       0.008
   0.37500000  0.12500000  0.00000000       0.008
   0.50000000  0.12500000  0.00000000       0.008
  -0.37500000  0.12500000  0.00000000       0.008
  -0.25000000  0.12500000  0.00000000       0.008
  -0.12500000  0.12500000  0.00000000       0.008
   0.00000000  0.25000000  0.00000000       0.008
   0.12500000  0.25000000  0.00000000       0.008
   0.25000000  0.25000000  0.00000000       0.008
   0.37500000  0.25000000  0.00000000       0.008
   0.50000000  0.25000000  0.00000000       0.008
  -0.37500000  0.25000000  0.00000000       0.008
  -0.25000000  0.25000000  0.00000000       0.008
  -0.12500000  0.25000000  0.00000000       0.008
   0.00000000  0.37500000  0.00000000       0.008
   0.12500000  0.37500000  0.00000000       0.008
   0.25000000  0.37500000  0.00000000       0.008
   0.37500000  0.37500000  0.00000000       0.008
   0.50000000  0.37500000  0.00000000       0.008
  -0.37500000  0.37500000  0.00000000       0.008
  -0.25000000  0.37500000  0.00000000       0.008
  -0.12500000  0.37500000  0.00000000       0.008
   0.00000000  0.50000000  0.00000000       0.004
   0.12500000  0.50000000  0.00000000       0.008
   0.25000000  0.50000000  0.00000000       0.008
   0.37500000  0.50000000  0.00000000       0.008
   0.50000000  0.50000000  0.00000000       0.004
   0.00000000  0.00000000  0.25000000       0.008
   0.12500000  0.00000000  0.25000000       0.008
   0.25000000  0.00000000  0.25000000       0.008
   0.37500000  0.00000000  0.25000000       0.008
   0.50000000  0.00000000  0.25000000       0.008
  -0.37500000  0.00000000  0.25000000       0.008
  -0.25000000  0.00000000  0.25000000       0.008
  -0.12500000  0.00000000  0.25000000       0.008
   0.00000000  0.12500000  0.25000000       0.008
   0.12500000  0.12500000  0.25000000       0.008
   0.25000000  0.12500000  0.25000000       0.008
   0.37500000  0.12500000  0.25000000       0.008
   0.50000000  0.12500000  0.25000000       0.008
  -0.37500000  0.12500000  0.25000000       0.008
  -0.25000000  0.12500000  0.25000000       0.008
  -0.12500000  0.12500000  0.25000000       0.008
   0.00000000  0.25000000  0.25000000       0.008
   0.12500000  0.25000000  0.25000000       0.008
   0.25000000  0.25000000  0.25000000       0.008
   0.37500000  0.25000000  0.25000000       0.008
   0.50000000  0.25000000  0.25000000       0.008
  -0.37500000  0.25000000  0.25000000       0.008
  -0.25000000  0.25000000  0.25000000       0.008
  -0.12500000  0.25000000  0.25000000       0.008
   0.00000000  0.37500000  0.25000000       0.008
   0.12500000  0.37500000  0.25000000       0.008
   0.25000000  0.37500000  0.25000000       0.008
   0.37500000  0.37500000  0.25000000       0.008
   0.50000000  0.37500000  0.25000000       0.008
  -0.37500000  0.37500000  0.25000000       0.008
  -0.25000000  0.37500000  0.25000000       0.008
  -0.12500000  0.37500000  0.25000000       0.008
   0.00000000  0.50000000  0.25000000       0.008
   0.12500000  0.50000000  0.25000000       0.008
   0.25000000  0.50000000  0.25000000       0.008
   0.37500000  0.50000000  0.25000000       0.008
   0.50000000  0.50000000  0.25000000       0.008
  -0.37500000  0.50000000  0.25000000       0.008
  -0.25000000  0.50000000  0.25000000       0.008
  -0.12500000  0.50000000  0.25000000       0.008
   0.00000000 -0.37500000  0.25000000       0.008
   0.12500000 -0.37500000  0.25000000       0.008
   0.25000000 -0.37500000  0.25000000       0.008
   0.37500000 -0.37500000  0.25000000       0.008
   0.50000000 -0.37500000  0.25000000       0.008
  -0.37500000 -0.37500000  0.25000000       0.008
  -0.25000000 -0.37500000  0.25000000       0.008
  -0.12500000 -0.37500000  0.25000000       0.008
   0.00000000 -0.25000000  0.25000000       0.008
   0.12500000 -0.25000000  0.25000000       0.008
   0.25000000 -0.25000000  0.25000000       0.008
   0.37500000 -0.25000000  0.25000000       0.008
   0.50000000 -0.25000000  0.25000000       0.008
  -0.37500000 -0.25000000  0.25000000       0.008
  -0.25000000 -0.25000000  0.25000000       0.008
  -0.12500000 -0.25000000  0.25000000       0.008
   0.00000000 -0.12500000  0.25000000       0.008
   0.12500000 -0.12500000  0.25000000       0.008
   0.25000000 -0.12500000  0.25000000       0.008
   0.37500000 -0.12500000  0.25000000       0.008
   0.50000000 -0.12500000  0.25000000       0.008
  -0.37500000 -0.12500000  0.25000000       0.008
  -0.25000000 -0.12500000  0.25000000       0.008
  -0.12500000 -0.12500000  0.25000000       0.008
   0.00000000  0.00000000  0.50000000       0.004
   0.12500000  0.00000000  0.50000000       0.008
   0.25000000  0.00000000  0.50000000       0.008
   0.37500000  0.00000000  0.50000000       0.008
   0.50000000  0.00000000  0.50000000       0.004
   0.00000000  0.12500000  0.50000000       0.008
   0.12500000  0.12500000  0.50000000       0.008
   0.25000000  0.12500000  0.50000000       0.008
   0.37500000  0.12500000  0.50000000       0.008
   0.50000000  0.12500000  0.50000000       0.008
  -0.37500000  0.12500000  0.50000000       0.008
  -0.25000000  0.12500000  0.50000000       0.008
  -0.12500000  0.12500000  0.50000000       0.008
   0.00000000  0.25000000  0.50000000       0.008
   0.12500000  0.25000000  0.50000000       0.008
   0.25000000  0.25000000  0.50000000       0.008
   0.37500000  0.25000000  0.50000000       0.008
   0.50000000  0.25000000  0.50000000       0.008
  -0.37500000  0.25000000  0.50000000       0.008
  -0.25000000  0.25000000  0.50000000       0.008
  -0.12500000  0.25000000  0.50000000       0.008
   0.00000000  0.37500000  0.50000000       0.008
   0.12500000  0.37500000  0.50000000       0.008
   0.25000000  0.37500000  0.50000000       0.008
   0.37500000  0.37500000  0.50000000       0.008
   0.50000000  0.37500000  0.50000000       0.008
  -0.37500000  0.37500000  0.50000000       0.008
  -0.25000000  0.37500000  0.50000000       0.008
  -0.12500000  0.37500000  0.50000000       0.008
   0.00000000  0.50000000  0.50000000       0.004
   0.12500000  0.50000000  0.50000000       0.008
   0.25000000  0.50000000  0.50000000       0.008
   0.37500000  0.50000000  0.50000000       0.008
   0.50000000  0.50000000  0.50000000       0.004

 position of ions in fractional coordinates (direct lattice) 
   0.00000000  0.00000000  0.35221672
   0.00000000  0.00000000  0.64778325
   0.00000000  0.00000000  0.14778328
   0.00000000  0.00000000  0.85221675
   0.66666669  0.33333334  0.68555007
   0.66666669  0.33333334  0.98111662
   0.66666669  0.33333334  0.48111662
   0.66666669  0.33333334  0.18555001
   0.33333334  0.66666669  0.01888338
   0.33333334  0.66666669  0.31444993
   0.33333334  0.66666669  0.81444993
   0.33333334  0.66666669  0.51888338
   0.30611761  0.00000000  0.25000000
   0.69388239  0.00000000  0.75000000
   0.00000000  0.30611761  0.25000000
   0.00000000  0.69388239  0.75000000
   0.69388239  0.69388239  0.25000000
   0.30611761  0.30611761  0.75000000
   0.97278430  0.33333334  0.58333331
   0.36054904  0.33333334  0.08333334
   0.66666669  0.63945093  0.58333331
   0.66666669  0.02721572  0.08333334
   0.36054904  0.02721572  0.58333331
   0.97278430  0.63945093  0.08333334
   0.63945093  0.66666669  0.91666669
   0.02721572  0.66666669  0.41666666
   0.33333334  0.97278430  0.91666669
   0.33333334  0.36054904  0.41666666
   0.02721572  0.36054904  0.91666669
   0.63945093  0.97278430  0.41666666

 position of ions in cartesian coordinates  (Angst):
   0.00000000  0.00000000  4.70726345
   0.00000000  0.00000000  8.65741516
   0.00000000  0.00000000  1.97507606
   0.00000000  0.00000000 11.38960337
   2.41525279  1.41045610  9.16215659
   2.41525279  1.41045610 13.11230870
   2.41525279  1.41045610  6.42996919
   2.41525279  1.41045610  2.47981629
   0.02772884  2.77288444  0.25237032
   0.02772884  2.77288444  4.20252243
   0.02772884  2.77288444 10.88486194
   0.02772884  2.77288444  6.93470983
   1.47021450  0.01470215  3.34116976
   3.33256209  0.03332562 10.02350927
  -0.72237482  1.26589203  3.34116976
  -1.63742021  2.86942062 10.02350927
   1.69514188  2.90274624  3.34116976
   0.74783968  1.28059418 10.02350927
   3.88546729  1.42515825  7.79606249
   0.94503815  1.39575396  1.11372329
   1.69287804  2.67634802  7.79606249
   3.13762763  0.14456403  1.11372329
   1.66741299  0.12986188  7.79606249
   3.16309254  2.69105016  1.11372329
   1.49794320  2.78758658 12.25095604
  -1.44248570  2.75818229  5.56861613
  -0.69464598  4.03877647 12.25095604
   0.75010373  1.50699228  5.56861613
  -0.72011081  1.49229014 12.25095604
   0.77556838  4.05347862  5.56861613



--------------------------------------------------------------------------------------------------------


 k-point  1 :   0.0000 0.0000 0.0000  plane waves:    8965
 k-point  2 :   0.1250 0.0000 0.0000  plane waves:    8960
 k-point  3 :   0.2500 0.0000 0.0000  plane waves:    8922
 k-point  4 :   0.3750 0.0000 0.0000  plane waves:    8907
 k-point  5 :   0.5000 0.0000 0.0000  plane waves:    8890
 k-point  6 :   0.0000 0.1250 0.0000  plane waves:    8951
 k-point  7 :   0.1250 0.1250 0.0000  plane waves:    8930
 k-point  8 :   0.2500 0.1250 0.0000  plane waves:    8916
 k-point  9 :   0.3750 0.1250 0.0000  plane waves:    8896
 k-point 10 :   0.5000 0.1250 0.0000  plane waves:    8895
 k-point 11 :  -0.3750 0.1250 0.0000  plane waves:    8906
 k-point 12 :  -0.2500 0.1250 0.0000  plane waves:    8928
 k-point 13 :  -0.1250 0.1250 0.0000  plane waves:    8929
 k-point 14 :   0.0000 0.2500 0.0000  plane waves:    8934
 k-point 15 :   0.1250 0.2500 0.0000  plane waves:    8918
 k-point 16 :   0.2500 0.2500 0.0000  plane waves:    8906
 k-point 17 :   0.3750 0.2500 0.0000  plane waves:    8916
 k-point 18 :   0.5000 0.2500 0.0000  plane waves:    8889
 k-point 19 :  -0.3750 0.2500 0.0000  plane waves:    8901
 k-point 20 :  -0.2500 0.2500 0.0000  plane waves:    8920
 k-point 21 :  -0.1250 0.2500 0.0000  plane waves:    8931
 k-point 22 :   0.0000 0.3750 0.0000  plane waves:    8894
 k-point 23 :   0.1250 0.3750 0.0000  plane waves:    8912
 k-point 24 :   0.2500 0.3750 0.0000  plane waves:    8910
 k-point 25 :   0.3750 0.3750 0.0000  plane waves:    8892
 k-point 26 :   0.5000 0.3750 0.0000  plane waves:    8905
 k-point 27 :  -0.3750 0.3750 0.0000  plane waves:    8889
 k-point 28 :  -0.2500 0.3750 0.0000  plane waves:    8895
 k-point 29 :  -0.1250 0.3750 0.0000  plane waves:    8903
 k-point 30 :   0.0000 0.5000 0.0000  plane waves:    8894
 k-point 31 :   0.1250 0.5000 0.0000  plane waves:    8886
 k-point 32 :   0.2500 0.5000 0.0000  plane waves:    8888
 k-point 33 :   0.3750 0.5000 0.0000  plane waves:    8881
 k-point 34 :   0.5000 0.5000 0.0000  plane waves:    8892
 k-point 35 :   0.0000 0.0000 0.2500  plane waves:    8951
 k-point 36 :   0.1250 0.0000 0.2500  plane waves:    8933
 k-point 37 :   0.2500 0.0000 0.2500  plane waves:    8917
 k-point 38 :   0.3750 0.0000 0.2500  plane waves:    8902
 k-point 39 :   0.5000 0.0000 0.2500  plane waves:    8906
 k-point 40 :  -0.3750 0.0000 0.2500  plane waves:    8902
 k-point 41 :  -0.2500 0.0000 0.2500  plane waves:    8917
 k-point 42 :  -0.1250 0.0000 0.2500  plane waves:    8933
 k-point 43 :   0.0000 0.1250 0.2500  plane waves:    8939
 k-point 44 :   0.1250 0.1250 0.2500  plane waves:    8916
 k-point 45 :   0.2500 0.1250 0.2500  plane waves:    8918
 k-point 46 :   0.3750 0.1250 0.2500  plane waves:    8906
 k-point 47 :   0.5000 0.1250 0.2500  plane waves:    8904
 k-point 48 :  -0.3750 0.1250 0.2500  plane waves:    8910
 k-point 49 :  -0.2500 0.1250 0.2500  plane waves:    8929
 k-point 50 :  -0.1250 0.1250 0.2500  plane waves:    8942
 k-point 51 :   0.0000 0.2500 0.2500  plane waves:    8909
 k-point 52 :   0.1250 0.2500 0.2500  plane waves:    8921
 k-point 53 :   0.2500 0.2500 0.2500  plane waves:    8914
 k-point 54 :   0.3750 0.2500 0.2500  plane waves:    8896
 k-point 55 :   0.5000 0.2500 0.2500  plane waves:    8907
 k-point 56 :  -0.3750 0.2500 0.2500  plane waves:    8908
 k-point 57 :  -0.2500 0.2500 0.2500  plane waves:    8913
 k-point 58 :  -0.1250 0.2500 0.2500  plane waves:    8918
 k-point 59 :   0.0000 0.3750 0.2500  plane waves:    8895
 k-point 60 :   0.1250 0.3750 0.2500  plane waves:    8917
 k-point 61 :   0.2500 0.3750 0.2500  plane waves:    8907
 k-point 62 :   0.3750 0.3750 0.2500  plane waves:    8900
 k-point 63 :   0.5000 0.3750 0.2500  plane waves:    8900
 k-point 64 :  -0.3750 0.3750 0.2500  plane waves:    8895
 k-point 65 :  -0.2500 0.3750 0.2500  plane waves:    8897
 k-point 66 :  -0.1250 0.3750 0.2500  plane waves:    8900
 k-point 67 :   0.0000 0.5000 0.2500  plane waves:    8892
 k-point 68 :   0.1250 0.5000 0.2500  plane waves:    8882
 k-point 69 :   0.2500 0.5000 0.2500  plane waves:    8891
 k-point 70 :   0.3750 0.5000 0.2500  plane waves:    8877
 k-point 71 :   0.5000 0.5000 0.2500  plane waves:    8882
 k-point 72 :  -0.3750 0.5000 0.2500  plane waves:    8877
 k-point 73 :  -0.2500 0.5000 0.2500  plane waves:    8891
 k-point 74 :  -0.1250 0.5000 0.2500  plane waves:    8882
 k-point 75 :   0.0000-0.3750 0.2500  plane waves:    8895
 k-point 76 :   0.1250-0.3750 0.2500  plane waves:    8900
 k-point 77 :   0.2500-0.3750 0.2500  plane waves:    8897
 k-point 78 :   0.3750-0.3750 0.2500  plane waves:    8895
 k-point 79 :   0.5000-0.3750 0.2500  plane waves:    8900
 k-point 80 :  -0.3750-0.3750 0.2500  plane waves:    8900
 k-point 81 :  -0.2500-0.3750 0.2500  plane waves:    8907
 k-point 82 :  -0.1250-0.3750 0.2500  plane waves:    8917
 k-point 83 :   0.0000-0.2500 0.2500  plane waves:    8909
 k-point 84 :   0.1250-0.2500 0.2500  plane waves:    8918
 k-point 85 :   0.2500-0.2500 0.2500  plane waves:    8913
 k-point 86 :   0.3750-0.2500 0.2500  plane waves:    8908
 k-point 87 :   0.5000-0.2500 0.2500  plane waves:    8907
 k-point 88 :  -0.3750-0.2500 0.2500  plane waves:    8896
 k-point 89 :  -0.2500-0.2500 0.2500  plane waves:    8914
 k-point 90 :  -0.1250-0.2500 0.2500  plane waves:    8921
 k-point 91 :   0.0000-0.1250 0.2500  plane waves:    8939
 k-point 92 :   0.1250-0.1250 0.2500  plane waves:    8942
 k-point 93 :   0.2500-0.1250 0.2500  plane waves:    8929
 k-point 94 :   0.3750-0.1250 0.2500  plane waves:    8910
 k-point 95 :   0.5000-0.1250 0.2500  plane waves:    8904
 k-point 96 :  -0.3750-0.1250 0.2500  plane waves:    8906
 k-point 97 :  -0.2500-0.1250 0.2500  plane waves:    8918
 k-point 98 :  -0.1250-0.1250 0.2500  plane waves:    8916
 k-point 99 :   0.0000 0.0000 0.5000  plane waves:    8938
 k-point ** :   0.1250 0.0000 0.5000  plane waves:    8920
 k-point ** :   0.2500 0.0000 0.5000  plane waves:    8930
 k-point ** :   0.3750 0.0000 0.5000  plane waves:    8906
 k-point ** :   0.5000 0.0000 0.5000  plane waves:    8904
 k-point ** :   0.0000 0.1250 0.5000  plane waves:    8924
 k-point ** :   0.1250 0.1250 0.5000  plane waves:    8912
 k-point ** :   0.2500 0.1250 0.5000  plane waves:    8922
 k-point ** :   0.3750 0.1250 0.5000  plane waves:    8908
 k-point ** :   0.5000 0.1250 0.5000  plane waves:    8902
 k-point ** :  -0.3750 0.1250 0.5000  plane waves:    8916
 k-point ** :  -0.2500 0.1250 0.5000  plane waves:    8922
 k-point ** :  -0.1250 0.1250 0.5000  plane waves:    8938
 k-point ** :   0.0000 0.2500 0.5000  plane waves:    8924
 k-point ** :   0.1250 0.2500 0.5000  plane waves:    8918
 k-point ** :   0.2500 0.2500 0.5000  plane waves:    8918
 k-point ** :   0.3750 0.2500 0.5000  plane waves:    8884
 k-point ** :   0.5000 0.2500 0.5000  plane waves:    8886
 k-point ** :  -0.3750 0.2500 0.5000  plane waves:    8914
 k-point ** :  -0.2500 0.2500 0.5000  plane waves:    8906
 k-point ** :  -0.1250 0.2500 0.5000  plane waves:    8914
 k-point ** :   0.0000 0.3750 0.5000  plane waves:    8912
 k-point ** :   0.1250 0.3750 0.5000  plane waves:    8922
 k-point ** :   0.2500 0.3750 0.5000  plane waves:    8892
 k-point ** :   0.3750 0.3750 0.5000  plane waves:    8898
 k-point ** :   0.5000 0.3750 0.5000  plane waves:    8910
 k-point ** :  -0.3750 0.3750 0.5000  plane waves:    8902
 k-point ** :  -0.2500 0.3750 0.5000  plane waves:    8904
 k-point ** :  -0.1250 0.3750 0.5000  plane waves:    8894
 k-point ** :   0.0000 0.5000 0.5000  plane waves:    8900
 k-point ** :   0.1250 0.5000 0.5000  plane waves:    8878
 k-point ** :   0.2500 0.5000 0.5000  plane waves:    8890
 k-point ** :   0.3750 0.5000 0.5000  plane waves:    8880
 k-point ** :   0.5000 0.5000 0.5000  plane waves:    8880

 maximum and minimum number of plane-waves per node :       392      352

 maximum number of plane-waves:      8965
 maximum index in each direction: 
   IXMAX=    9   IYMAX=    9   IZMAX=   26
   IXMIN=  -10   IYMIN=  -10   IZMIN=  -27

 WARNING: aliasing errors must be expected set NGX to  40 to avoid them
 WARNING: aliasing errors must be expected set NGY to  40 to avoid them
 WARNING: aliasing errors must be expected set NGZ to 108 to avoid them
 aliasing errors are usually negligible using standard VASP settings
 and one can safely disregard these warnings

 parallel 3D FFT for wavefunctions:
    minimum data exchange during FFTs selected (reduces bandwidth)
 parallel 3D FFT for charge:
    minimum data exchange during FFTs selected (reduces bandwidth)


 total amount of memory used by VASP on root node    56729. kBytes
========================================================================

   base      :      30000. kBytes
   nonl-proj :       6741. kBytes
   fftplans  :        476. kBytes
   grid      :        735. kBytes
   one-center:          6. kBytes
   wavefun   :      18771. kBytes

     INWAV:  cpu time    0.00: real time    0.00
 Broyden mixing: mesh for mixing (old mesh)
   NGX = 19   NGY = 19   NGZ = 53
  (NGX  = 60   NGY  = 60   NGZ  =160)
  gives a total of  19133 points

 initial charge density was supplied:
 charge density of overlapping atoms calculated
 number of electron     144.0000000 magnetization 
 keeping initial charge density in first step


--------------------------------------------------------------------------------------------------------


 Maximum index for augmentation-charges          513 (set IRDMAX)


--------------------------------------------------------------------------------------------------------


 First call to EWALD:  gamma=   0.275
 Maximum number of real-space cells 4x 4x 2
 Maximum number of reciprocal cells 2x 2x 5

 FEWALD executed in parallel
    FEWALD:  cpu time    0.00: real time    0.00


----------------------------------------- Iteration    1(   1)  ---------------------------------------


    POTLOK:  cpu time    0.03: real time    0.03
    SETDIJ:  cpu time    0.00: real time    0.00
     EDDAV:  cpu time   11.33: real time   11.35
       DOS:  cpu time    0.00: real time    0.00
    --------------------------------------------
      LOOP:  cpu time   11.36: real time   11.38

 eigenvalue-minimisations  : 23280
 total energy-change (2. order) : 0.8734472E+03  (-0.8333648E+04)
 number of electron     144.0000000 magnetization 
 augmentation part      144.0000000 magnetization 

 Free energy of the ion-electron system (eV)
  ---------------------------------------------------
  alpha Z        PSCENC =       217.48342038
  Ewald energy   TEWEN  =     -7082.19285873
  -Hartree energ DENC   =     -1945.31467877
  -exchange      EXHF   =         0.00000000
  -V(xc)+E(xc)   XCENC  =       196.18267440
  PAW double counting   =      4861.73017950    -4512.10075916
  entropy T*S    EENTRO =        -0.00946363
  eigenvalues    EBANDS =       699.18091158
  atomic energy  EATOM  =      8438.48773170
  ---------------------------------------------------
  free energy    TOTEN  =       873.44715728 eV

  energy without entropy =      873.45662090  energy(sigma->0) =      873.45188909


--------------------------------------------------------------------------------------------------------




----------------------------------------- Iteration    1(   2)  ---------------------------------------


     EDDAV:  cpu time   12.95: real time   12.97
       DOS:  cpu time    0.00: real time    0.00
    --------------------------------------------
      LOOP:  cpu time   12.96: real time   12.98

 eigenvalue-minimisations  : 28640
 total energy-change (2. order) :-0.1068187E+04  (-0.1043029E+04)
 number of electron     144.0000000 magnetization 
 augmentation part      144.0000000 magnetization 

 Free energy of the ion-electron system (eV)
  ---------------------------------------------------
  alpha Z        PSCENC =       217.48342038
  Ewald energy   TEWEN  =     -7082.19285873
  -Hartree energ DENC   =     -1945.31467877
  -exchange      EXHF   =         0.00000000
  -V(xc)+E(xc)   XCENC  =       196.18267440
  PAW double counting   =      4861.73017950    -4512.10075916
  entropy T*S    EENTRO =        -0.00000000
  eigenvalues    EBANDS =      -369.01544095
  atomic energy  EATOM  =      8438.48773170
  ---------------------------------------------------
  free energy    TOTEN  =      -194.73973163 eV

  energy without entropy =     -194.73973163  energy(sigma->0) =     -194.73973163


--------------------------------------------------------------------------------------------------------




----------------------------------------- Iteration    1(   3)  ---------------------------------------


     EDDAV:  cpu time   12.93: real time   12.95
       DOS:  cpu time    0.00: real time    0.00
    --------------------------------------------
      LOOP:  cpu time   12.94: real time   12.97

 eigenvalue-minimisations  : 27400
 total energy-change (2. order) :-0.5543303E+02  (-0.5521419E+02)
 number of electron     144.0000000 magnetization 
 augmentation part      144.0000000 magnetization 

 Free energy of the ion-electron system (eV)
  ---------------------------------------------------
  alpha Z        PSCENC =       217.48342038
  Ewald energy   TEWEN  =     -7082.19285873
  -Hartree energ DENC   =     -1945.31467877
  -exchange      EXHF   =         0.00000000
  -V(xc)+E(xc)   XCENC  =       196.18267440
  PAW double counting   =      4861.73017950    -4512.10075916
  entropy T*S    EENTRO =        -0.00000000
  eigenvalues    EBANDS =      -424.44847128
  atomic energy  EATOM  =      8438.48773170
  ---------------------------------------------------
  free energy    TOTEN  =      -250.17276195 eV

  energy without entropy =     -250.17276195  energy(sigma->0) =     -250.17276195


--------------------------------------------------------------------------------------------------------




----------------------------------------- Iteration    1(   4)  ---------------------------------------


     EDDAV:  cpu time   12.62: real time   12.64
       DOS:  cpu time    0.00: real time    0.00
    --------------------------------------------
      LOOP:  cpu time   12.63: real time   12.66

 eigenvalue-minimisations  : 27384
 total energy-change (2. order) :-0.6550084E+00  (-0.6532007E+00)
 number of electron     144.0000000 magnetization 
 augmentation part      144.0000000 magnetization 

 Free energy of the ion-electron system (eV)
  ---------------------------------------------------
  alpha Z        PSCENC =       217.48342038
  Ewald energy   TEWEN  =     -7082.19285873
  -Hartree energ DENC   =     -1945.31467877
  -exchange      EXHF   =         0.00000000
  -V(xc)+E(xc)   XCENC  =       196.18267440
  PAW double counting   =      4861.73017950    -4512.10075916
  entropy T*S    EENTRO =        -0.00000000
  eigenvalues    EBANDS =      -425.10347969
  atomic energy  EATOM  =      8438.48773170
  ---------------------------------------------------
  free energy    TOTEN  =      -250.82777037 eV

  energy without entropy =     -250.82777037  energy(sigma->0) =     -250.82777037


--------------------------------------------------------------------------------------------------------




----------------------------------------- Iteration    1(   5)  ---------------------------------------


     EDDAV:  cpu time   12.94: real time   12.96
       DOS:  cpu time    0.00: real time    0.00
    CHARGE:  cpu time    0.50: real time    0.50
    MIXING:  cpu time    0.00: real time    0.00
    --------------------------------------------
      LOOP:  cpu time   13.44: real time   13.47

 eigenvalue-minimisations  : 27056
 total energy-change (2. order) :-0.1096006E-01  (-0.1094825E-01)
 number of electron     143.9999984 magnetization 
 augmentation part       14.2425194 magnetization 

 Broyden mixing:
  rms(total) = 0.29528E+01    rms(broyden)= 0.29525E+01
  rms(prec ) = 0.35266E+01
  weight for this iteration     100.00

 Free energy of the ion-electron system (eV)
  ---------------------------------------------------
  alpha Z        PSCENC =       217.48342038
  Ewald energy   TEWEN  =     -7082.19285873
  -Hartree energ DENC   =     -1945.31467877
  -exchange      EXHF   =         0.00000000
  -V(xc)+E(xc)   XCENC  =       196.18267440
  PAW double counting   =      4861.73017950    -4512.10075916
  entropy T*S    EENTRO =        -0.00000000
  eigenvalues    EBANDS =      -425.11443975
  atomic energy  EATOM  =      8438.48773170
  ---------------------------------------------------
  free energy    TOTEN  =      -250.83873043 eV

  energy without entropy =     -250.83873043  energy(sigma->0) =     -250.83873043


--------------------------------------------------------------------------------------------------------




----------------------------------------- Iteration    1(   6)  ---------------------------------------


    POTLOK:  cpu time    0.02: real time    0.01
    SETDIJ:  cpu time    0.00: real time    0.00
    EDDIAG:  cpu time    3.24: real time    3.26
  RMM-DIIS:  cpu time    5.10: real time    5.10
    ORTHCH:  cpu time    0.58: real time    0.58
       DOS:  cpu time    0.00: real time    0.00
    CHARGE:  cpu time    0.50: real time    0.50
    MIXING:  cpu time    0.00: real time    0.00
    --------------------------------------------
      LOOP:  cpu time    9.43: real time    9.47

 eigenvalue-minimisations  : 23232
 total energy-change (2. order) : 0.2442104E+02  (-0.1135888E+02)
 number of electron     143.9999986 magnetization 
 augmentation part       12.0294442 magnetization 

 Broyden mixing:
  rms(total) = 0.80314E+00    rms(broyden)= 0.80249E+00
  rms(prec ) = 0.88812E+00
  weight for this iteration     100.00

 eigenvalues of (default mixing * dielectric matrix)
  average eigenvalue GAMMA=   0.9488
  0.9488

 Free energy of the ion-electron system (eV)
  ---------------------------------------------------
  alpha Z        PSCENC =       217.48342038
  Ewald energy   TEWEN  =     -7082.19285873
  -Hartree energ DENC   =     -2233.57720618
  -exchange      EXHF   =         0.00000000
  -V(xc)+E(xc)   XCENC  =       216.85184497
  PAW double counting   =      5686.43694581    -5342.86562378
  entropy T*S    EENTRO =        -0.00000000
  eigenvalues    EBANDS =      -127.04194018
  atomic energy  EATOM  =      8438.48773170
  ---------------------------------------------------
  free energy    TOTEN  =      -226.41768601 eV

  energy without entropy =     -226.41768601  energy(sigma->0) =     -226.41768601


--------------------------------------------------------------------------------------------------------




----------------------------------------- Iteration    1(   7)  ---------------------------------------


    POTLOK:  cpu time    0.01: real time    0.01
    SETDIJ:  cpu time    0.00: real time    0.00
    EDDIAG:  cpu time    3.21: real time    3.23
  RMM-DIIS:  cpu time    5.10: real time    5.10
    ORTHCH:  cpu time    0.56: real time    0.57
       DOS:  cpu time    0.00: real time    0.00
    CHARGE:  cpu time    0.50: real time    0.50
    MIXING:  cpu time    0.00: real time    0.00
    --------------------------------------------
      LOOP:  cpu time    9.39: real time    9.44

 eigenvalue-minimisations  : 23232
 total energy-change (2. order) : 0.6840588E-01  (-0.2261630E+00)
 number of electron     143.9999986 magnetization 
 augmentation part       11.8281380 magnetization 

 Broyden mixing:
  rms(total) = 0.54784E+00    rms(broyden)= 0.54778E+00
  rms(prec ) = 0.59176E+00
  weight for this iteration     100.00

 eigenvalues of (default mixing * dielectric matrix)
  average eigenvalue GAMMA=   1.7384
  1.1009  2.3759

 Free energy of the ion-electron system (eV)
  ---------------------------------------------------
  alpha Z        PSCENC =       217.48342038
  Ewald energy   TEWEN  =     -7082.19285873
  -Hartree energ DENC   =     -2258.14137085
  -exchange      EXHF   =         0.00000000
  -V(xc)+E(xc)   XCENC  =       218.95399776
  PAW double counting   =      5860.30895656    -5516.58026190
  entropy T*S    EENTRO =        -0.00000000
  eigenvalues    EBANDS =      -104.66889505
  atomic energy  EATOM  =      8438.48773170
  ---------------------------------------------------
  free energy    TOTEN  =      -226.34928013 eV

  energy without entropy =     -226.34928013  energy(sigma->0) =     -226.34928013


--------------------------------------------------------------------------------------------------------




----------------------------------------- Iteration    1(   8)  ---------------------------------------


    POTLOK:  cpu time    0.01: real time    0.01
    SETDIJ:  cpu time    0.00: real time    0.00
    EDDIAG:  cpu time    3.21: real time    3.24
  RMM-DIIS:  cpu time    5.10: real time    5.10
    ORTHCH:  cpu time    0.57: real time    0.57
       DOS:  cpu time    0.00: real time    0.00
    CHARGE:  cpu time    0.50: real time    0.50
    MIXING:  cpu time    0.00: real time    0.00
    --------------------------------------------
      LOOP:  cpu time    9.39: real time    9.44

 eigenvalue-minimisations  : 23232
 total energy-change (2. order) :-0.3243475E-01  (-0.6566986E-01)
 number of electron     143.9999986 magnetization 
 augmentation part       11.9373033 magnetization 

 Broyden mixing:
  rms(total) = 0.11472E+00    rms(broyden)= 0.11470E+00
  rms(prec ) = 0.13416E+00
  weight for this iteration     100.00

 eigenvalues of (default mixing * dielectric matrix)
  average eigenvalue GAMMA=   1.6562
  2.6483  1.1601  1.1601

 Free energy of the ion-electron system (eV)
  ---------------------------------------------------
  alpha Z        PSCENC =       217.48342038
  Ewald energy   TEWEN  =     -7082.19285873
  -Hartree energ DENC   =     -2258.42656106
  -exchange      EXHF   =         0.00000000
  -V(xc)+E(xc)   XCENC  =       219.77280907
  PAW double counting   =      6024.20829209    -5679.58017445
  entropy T*S    EENTRO =        -0.00000000
  eigenvalues    EBANDS =      -106.13437388
  atomic energy  EATOM  =      8438.48773170
  ---------------------------------------------------
  free energy    TOTEN  =      -226.38171488 eV

  energy without entropy =     -226.38171488  energy(sigma->0) =     -226.38171488


--------------------------------------------------------------------------------------------------------




----------------------------------------- Iteration    1(   9)  ---------------------------------------


    POTLOK:  cpu time    0.01: real time    0.01
    SETDIJ:  cpu time    0.00: real time    0.00
    EDDIAG:  cpu time    3.21: real time    3.24
  RMM-DIIS:  cpu time    5.09: real time    5.10
    ORTHCH:  cpu time    0.56: real time    0.57
       DOS:  cpu time    0.00: real time    0.00
    CHARGE:  cpu time    0.50: real time    0.50
    MIXING:  cpu time    0.00: real time    0.00
    --------------------------------------------
      LOOP:  cpu time    9.38: real time    9.43

 eigenvalue-minimisations  : 23232
 total energy-change (2. order) : 0.2565180E-01  (-0.2537554E-01)
 number of electron     143.9999986 magnetization 
 augmentation part       11.8405336 magnetization 

 Broyden mixing:
  rms(total) = 0.28670E-01    rms(broyden)= 0.28640E-01
  rms(prec ) = 0.33027E-01
  weight for this iteration     100.00

 eigenvalues of (default mixing * dielectric matrix)
  average eigenvalue GAMMA=   1.8519
  2.8994  2.4826  1.0128  1.0128

 Free energy of the ion-electron system (eV)
  ---------------------------------------------------
  alpha Z        PSCENC =       217.48342038
  Ewald energy   TEWEN  =     -7082.19285873
  -Hartree energ DENC   =     -2274.38278622
  -exchange      EXHF   =         0.00000000
  -V(xc)+E(xc)   XCENC  =       220.98543166
  PAW double counting   =      6061.37293372    -5717.06596197
  entropy T*S    EENTRO =        -0.00000000
  eigenvalues    EBANDS =       -91.04397361
  atomic energy  EATOM  =      8438.48773170
  ---------------------------------------------------
  free energy    TOTEN  =      -226.35606308 eV

  energy without entropy =     -226.35606308  energy(sigma->0) =     -226.35606308


--------------------------------------------------------------------------------------------------------




----------------------------------------- Iteration    1(  10)  ---------------------------------------


    POTLOK:  cpu time    0.02: real time    0.01
    SETDIJ:  cpu time    0.00: real time    0.00
    EDDIAG:  cpu time    3.21: real time    3.23
  RMM-DIIS:  cpu time    5.10: real time    5.11
    ORTHCH:  cpu time    0.57: real time    0.58
       DOS:  cpu time    0.00: real time    0.00
    CHARGE:  cpu time    0.50: real time    0.50
    MIXING:  cpu time    0.00: real time    0.00
    --------------------------------------------
      LOOP:  cpu time    9.40: real time    9.44

 eigenvalue-minimisations  : 23236
 total energy-change (2. order) :-0.7492717E-03  (-0.6042289E-03)
 number of electron     143.9999986 magnetization 
 augmentation part       11.8350647 magnetization 

 Broyden mixing:
  rms(total) = 0.28726E-01    rms(broyden)= 0.28724E-01
  rms(prec ) = 0.32893E-01
  weight for this iteration     100.00

 eigenvalues of (default mixing * dielectric matrix)
  average eigenvalue GAMMA=   1.6849
  2.7359  2.4444  1.0862  1.0862  1.0719

 Free energy of the ion-electron system (eV)
  ---------------------------------------------------
  alpha Z        PSCENC =       217.48342038
  Ewald energy   TEWEN  =     -7082.19285873
  -Hartree energ DENC   =     -2273.94381555
  -exchange      EXHF   =         0.00000000
  -V(xc)+E(xc)   XCENC  =       220.95969068
  PAW double counting   =      6040.62536278    -5696.37051674
  entropy T*S    EENTRO =        -0.00000000
  eigenvalues    EBANDS =       -91.40582687
  atomic energy  EATOM  =      8438.48773170
  ---------------------------------------------------
  free energy    TOTEN  =      -226.35681235 eV

  energy without entropy =     -226.35681235  energy(sigma->0) =     -226.35681235


--------------------------------------------------------------------------------------------------------




----------------------------------------- Iteration    1(  11)  ---------------------------------------


    POTLOK:  cpu time    0.01: real time    0.01
    SETDIJ:  cpu time    0.00: real time    0.00
    EDDIAG:  cpu time    3.22: real time    3.26
  RMM-DIIS:  cpu time    5.10: real time    5.10
    ORTHCH:  cpu time    0.57: real time    0.58
       DOS:  cpu time    0.00: real time    0.00
    CHARGE:  cpu time    0.50: real time    0.50
    MIXING:  cpu time    0.00: real time    0.00
    --------------------------------------------
      LOOP:  cpu time    9.41: real time    9.46

 eigenvalue-minimisations  : 23232
 total energy-change (2. order) : 0.1918459E-02  (-0.1048234E-02)
 number of electron     143.9999986 magnetization 
 augmentation part       11.8552004 magnetization 

 Broyden mixing:
  rms(total) = 0.23560E-02    rms(broyden)= 0.23363E-02
  rms(prec ) = 0.26720E-02
  weight for this iteration     100.00

 eigenvalues of (default mixing * dielectric matrix)
  average eigenvalue GAMMA=   1.8603
  3.0491  2.4980  2.4980  0.9705  1.0731  1.0731

 Free energy of the ion-electron system (eV)
  ---------------------------------------------------
  alpha Z        PSCENC =       217.48342038
  Ewald energy   TEWEN  =     -7082.19285873
  -Hartree energ DENC   =     -2271.02105304
  -exchange      EXHF   =         0.00000000
  -V(xc)+E(xc)   XCENC  =       220.75120284
  PAW double counting   =      6035.01699489    -5690.69157608
  entropy T*S    EENTRO =        -0.00000000
  eigenvalues    EBANDS =       -94.18875585
  atomic energy  EATOM  =      8438.48773170
  ---------------------------------------------------
  free energy    TOTEN  =      -226.35489389 eV

  energy without entropy =     -226.35489389  energy(sigma->0) =     -226.35489389


--------------------------------------------------------------------------------------------------------




[...]
      8     -11.2703      2.00000
      9     -11.2628      2.00000
     10     -11.2121      2.00000
     11     -10.9885      2.00000
     12     -10.9693      2.00000
     13     -10.8797      2.00000
     14     -10.8523      2.00000
     15     -10.7573      2.00000
     16     -10.7031      2.00000
     17     -10.6095      2.00000
     18     -10.6090      2.00000
     19      -0.6081      2.00000
     20      -0.5105      2.00000
     21      -0.4557      2.00000
     22      -0.3751      2.00000
     23      -0.0668      2.00000
     24       0.2697      2.00000
     25       0.3221      2.00000
     26       0.3537      2.00000
     27       0.5236      2.00000
     28       0.7146      2.00000
     29       0.8445      2.00000
     30       0.8485      2.00000
     31       1.5229      2.00000
     32       1.5388      2.00000
     33       1.6513      2.00000
     34       1.8442      2.00000
     35       1.8883      2.00000
     36       1.9478      2.00000
     37       1.9578      2.00000
     38       2.2498      2.00000
     39       2.3805      2.00000
     40       2.4891      2.00000
     41       2.6052      2.00000
     42       2.7164      2.00000
     43       3.3449      2.00000
     44       3.3654      2.00000
     45       3.4173      2.00000
     46       3.4734      2.00000
     47       3.5871      2.00000
     48       3.6726      2.00000
     49       3.7293      2.00000
     50       3.8948      2.00000
     51       3.9409      2.00000
     52       4.0046      2.00000
     53       4.0935      2.00000
     54       4.1506      2.00000
     55       4.2045      2.00000
     56       4.2147      2.00000
     57       4.3450      2.00000
     58       4.3643      2.00000
     59       4.4575      2.00000
     60       4.4758      2.00000
     61       4.5676      2.00000
     62       4.6495      2.00000
     63       4.6663      2.00000
     64       4.7948      2.00000
     65       4.8535      2.00000
     66       4.8709      2.00000
     67       4.9247      2.00000
     68       5.1172      2.00000
     69       5.2201      2.00000
     70       5.2559      2.00000
     71       5.2866      2.00000
     72       5.2885      2.00000
     73      14.0480      0.00000
     74      14.0996      0.00000
     75      14.7066      0.00000
     76      14.7076      0.00000
     77      14.7743      0.00000
     78      14.9080      0.00000
     79      14.9244      0.00000
     80      15.0272      0.00000
     81      15.2971      0.00000
     82      15.4633      0.00000
     83      15.4749      0.00000
     84      15.5870      0.00000
     85      15.6708      0.00000
     86      15.7562      0.00000
     87      16.4383      0.00000
     88      16.5965      0.00000

 k-point   132 :       0.5000    0.5000    0.5000
  band No.  band energies     occupation 
      1     -12.2613      2.00000
      2     -12.2613      2.00000
      3     -12.2127      2.00000
      4     -12.1984      2.00000
      5     -11.6428      2.00000
      6     -11.6428      2.00000
      7     -11.4036      2.00000
      8     -11.4036      2.00000
      9     -11.1929      2.00000
     10     -11.1929      2.00000
     11     -10.9169      2.00000
     12     -10.9150      2.00000
     13     -10.8528      2.00000
     14     -10.8528      2.00000
     15     -10.8054      2.00000
     16     -10.7899      2.00000
     17     -10.6016      2.00000
     18     -10.6016      2.00000
     19      -0.6796      2.00000
     20      -0.6721      2.00000
     21      -0.5427      2.00000
     22      -0.5427      2.00000
     23       0.1637      2.00000
     24       0.1638      2.00000
     25       0.4290      2.00000
     26       0.4290      2.00000
     27       0.5422      2.00000
     28       0.5739      2.00000
     29       0.9530      2.00000
     30       0.9530      2.00000
     31       1.6862      2.00000
     32       1.6862      2.00000
     33       1.7122      2.00000
     34       1.7122      2.00000
     35       2.0887      2.00000
     36       2.0887      2.00000
     37       2.0987      2.00000
     38       2.1129      2.00000
     39       2.3099      2.00000
     40       2.3182      2.00000
     41       2.7537      2.00000
     42       2.7537      2.00000
     43       3.2732      2.00000
     44       3.2732      2.00000
     45       3.4756      2.00000
     46       3.5076      2.00000
     47       3.5076      2.00000
     48       3.5363      2.00000
     49       3.8228      2.00000
     50       3.8228      2.00000
     51       4.0183      2.00000
     52       4.0184      2.00000
     53       4.1045      2.00000
     54       4.1091      2.00000
     55       4.2655      2.00000
     56       4.2655      2.00000
     57       4.2937      2.00000
     58       4.3078      2.00000
     59       4.4383      2.00000
     60       4.4383      2.00000
     61       4.5000      2.00000
     62       4.5000      2.00000
     63       4.7297      2.00000
     64       4.7413      2.00000
     65       4.8137      2.00000
     66       4.8137      2.00000
     67       4.9842      2.00000
     68       4.9842      2.00000
     69       5.2814      2.00000
     70       5.2827      2.00000
     71       5.2827      2.00000
     72       5.2868      2.00000
     73      14.4180      0.00000
     74      14.4696      0.00000
     75      14.5467      0.00000
     76      14.5467      0.00000
     77      14.6931      0.00000
     78      14.6931      0.00000
     79      14.8249      0.00000
     80      14.8362      0.00000
     81      15.3715      0.00000
     82      15.3715      0.00000
     83      15.6205      0.00000
     84      15.6205      0.00000
     85      15.7482      0.00000
     86      15.7482      0.00000
     87      17.0589      0.00000
     88      17.0610      0.00000


--------------------------------------------------------------------------------------------------------


 soft charge-density along one line, spin component           1
         0         1         2         3         4         5         6         7         8         9
 total charge-density along one line

 pseudopotential strength for first ion, spin component:           1
  8.509  -0.006   0.000  -0.002   0.000   0.000  -0.000   0.000
 -0.006   0.000   0.000  -0.000   0.000  -0.000   0.000  -0.000
  0.000   0.000   2.006   0.000  -0.000  -0.027   0.000   0.000
 -0.002  -0.000   0.000   2.006  -0.000   0.000  -0.027   0.000
  0.000   0.000  -0.000  -0.000   2.006   0.000   0.000  -0.027
  0.000  -0.000  -0.027   0.000   0.000  -0.012  -0.000  -0.000
 -0.000   0.000   0.000  -0.027   0.000  -0.000  -0.012   0.000
  0.000  -0.000   0.000   0.000  -0.027  -0.000   0.000  -0.012
 total augmentation occupancy for first ion, spin component:           1
  0.863  -0.865  -0.004   0.048  -0.004   0.003  -0.019   0.002
 -0.865   1.223   0.007  -0.016   0.003  -0.005   0.011  -0.002
 -0.004   0.007   0.780  -0.017  -0.007  -0.277   0.007   0.002
  0.048  -0.016  -0.017   0.742   0.003   0.007  -0.258  -0.001
 -0.004   0.003  -0.007   0.003   0.784   0.002  -0.001  -0.279
  0.003  -0.005  -0.277   0.007   0.002   0.113  -0.004  -0.001
 -0.019   0.011   0.007  -0.258  -0.001  -0.004   0.103   0.001
  0.002  -0.002   0.002  -0.001  -0.279  -0.001   0.001   0.114


------------------------ aborting loop because EDIFF is reached ----------------------------------------


    CHARGE:  cpu time    0.49: real time    0.50
    FORLOC:  cpu time    0.00: real time    0.00
    FORNL :  cpu time    2.89: real time    2.89
    STRESS:  cpu time    3.55: real time    3.55
    FORCOR:  cpu time    0.01: real time    0.01
    FORHAR:  cpu time    0.00: real time    0.00
    MIXING:  cpu time    0.00: real time    0.00
    OFIELD:  cpu time    0.00: real time    0.00

  FORCE on cell =-STRESS in cart. coord.  units (eV):
  Direction    XX          YY          ZZ          XY          YZ          ZX
  --------------------------------------------------------------------------------------
  Alpha Z   217.48342   217.48342   217.48342
  Ewald   -2334.55134 -2335.79066 -2411.70825    -8.91802    -0.15206     6.18634
  Hartree   755.75316   754.98870   760.02470   -10.60460    -0.06059     0.79661
  E(xc)    -665.95104  -665.95109  -665.70575     0.08078     0.00119    -0.02123
  Local    -463.81705  -461.82083  -399.92142    20.90768     0.21329    -7.16938
  n-local  -248.23772  -248.23557  -253.46344    -0.22244    -0.01158     0.39893
  augment   122.97713   122.96819   123.18104    -0.27324    -0.00015    -0.05848
  Kinetic  2613.19402  2613.01684  2615.40182    -5.82540    -0.01597    -0.88228
  Fock        0.00000     0.00000     0.00000     0.00000     0.00000     0.00000
  -------------------------------------------------------------------------------------
  Total      -3.14941    -3.34100   -14.70789    -4.85524    -0.02587    -0.74949
  in kB     -18.90207   -20.05195   -88.27354   -29.14006    -0.15526    -4.49825
  external pressure =      -42.41 kB  Pullay stress =        0.00 kB


 VOLUME and BASIS-vectors are now :
 -----------------------------------------------------------------------------
  energy-cutoff  :      600.00
  volume of cell :      266.95
      direct lattice vectors                 reciprocal lattice vectors
     4.802776587  0.048027766  0.000000000     0.207031477  0.118141454 -0.000000000
    -2.359795028  4.135312650  0.000000000    -0.002404476  0.240447583  0.000000000
     0.000000000  0.000000000 13.364679020     0.000000000 -0.000000000  0.074824094

  length of vectors
     4.803016720  4.761243880 13.364679020     0.238368277  0.240459605  0.074824094


 FORCES acting on ions
    electron-ion (+dipol)            ewald-force                    non-local-force                 convergence-correction
 -----------------------------------------------------------------------------------------------
   -.183E+00 -.941E+00 -.129E+02   0.246E-01 0.704E+00 0.145E+02   0.158E+00 0.238E+00 -.157E+01   0.275E-04 0.270E-04 -.512E-04
   0.183E+00 0.941E+00 0.129E+02   -.247E-01 -.704E+00 -.145E+02   -.158E+00 -.238E+00 0.157E+01   -.275E-04 -.270E-04 -.162E-04
   0.118E+00 -.870E+00 0.129E+02   0.284E-01 0.642E+00 -.145E+02   -.146E+00 0.229E+00 0.157E+01   0.112E-03 0.186E-04 0.314E-05
   -.118E+00 0.870E+00 -.129E+02   -.284E-01 -.642E+00 0.145E+02   0.146E+00 -.229E+00 -.157E+01   -.112E-03 -.186E-04 0.641E-04
   -.183E+00 -.940E+00 -.129E+02   0.247E-01 0.704E+00 0.145E+02   0.158E+00 0.238E+00 -.157E+01   0.275E-04 0.271E-04 -.129E-04
   0.183E+00 0.941E+00 0.129E+02   -.247E-01 -.704E+00 -.145E+02   -.158E+00 -.238E+00 0.157E+01   -.275E-04 -.269E-04 0.625E-04
   0.118E+00 -.870E+00 0.129E+02   0.284E-01 0.642E+00 -.145E+02   -.146E+00 0.229E+00 0.157E+01   0.112E-03 0.185E-04 -.763E-04
   -.118E+00 0.870E+00 -.129E+02   -.284E-01 -.642E+00 0.145E+02   0.146E+00 -.229E+00 -.157E+01   -.112E-03 -.185E-04 0.272E-04
   -.183E+00 -.941E+00 -.129E+02   0.247E-01 0.704E+00 0.145E+02   0.158E+00 0.238E+00 -.157E+01   0.275E-04 0.269E-04 0.492E-04
   0.183E+00 0.940E+00 0.129E+02   -.247E-01 -.704E+00 -.145E+02   -.158E+00 -.238E+00 0.157E+01   -.275E-04 -.271E-04 -.315E-04
   0.118E+00 -.870E+00 0.129E+02   0.284E-01 0.642E+00 -.145E+02   -.146E+00 0.229E+00 0.157E+01   0.112E-03 0.185E-04 0.169E-04
   -.118E+00 0.870E+00 -.129E+02   -.284E-01 -.642E+00 0.145E+02   0.146E+00 -.229E+00 -.157E+01   -.112E-03 -.185E-04 -.350E-04
   -.305E+02 0.704E-01 0.396E+00   0.311E+02 0.300E+00 -.489E+00   -.611E+00 -.371E+00 0.903E-01   -.799E-03 -.470E-03 0.230E-02
   0.305E+02 -.704E-01 -.396E+00   -.311E+02 -.300E+00 0.489E+00   0.611E+00 0.371E+00 -.903E-01   0.799E-03 0.470E-03 -.230E-02
   0.156E+02 -.270E+02 -.237E+00   -.161E+02 0.283E+02 0.288E+00   0.525E+00 -.131E+01 -.499E-01   0.103E-02 -.129E-02 -.890E-03
   -.156E+02 0.270E+02 0.237E+00   0.161E+02 -.283E+02 -.288E+00   -.525E+00 0.131E+01 0.499E-01   -.103E-02 0.129E-02 0.890E-03
   0.149E+02 0.259E+02 -.160E+00   -.149E+02 -.256E+02 0.201E+00   0.677E-01 -.230E+00 -.394E-01   0.583E-03 -.828E-03 -.114E-02
   -.149E+02 -.259E+02 0.160E+00   0.149E+02 0.256E+02 -.201E+00   -.677E-01 0.230E+00 0.394E-01   -.583E-03 0.828E-03 0.114E-02
   -.305E+02 0.703E-01 0.396E+00   0.311E+02 0.300E+00 -.489E+00   -.611E+00 -.371E+00 0.903E-01   -.799E-03 -.470E-03 0.224E-02
   0.305E+02 -.704E-01 -.396E+00   -.311E+02 -.300E+00 0.489E+00   0.611E+00 0.371E+00 -.903E-01   0.799E-03 0.470E-03 -.224E-02
   0.156E+02 -.270E+02 -.237E+00   -.161E+02 0.283E+02 0.288E+00   0.525E+00 -.131E+01 -.499E-01   0.103E-02 -.129E-02 -.945E-03
   -.156E+02 0.270E+02 0.237E+00   0.161E+02 -.283E+02 -.288E+00   -.525E+00 0.131E+01 0.499E-01   -.103E-02 0.129E-02 0.948E-03
   0.149E+02 0.259E+02 -.160E+00   -.149E+02 -.256E+02 0.202E+00   0.677E-01 -.230E+00 -.394E-01   0.583E-03 -.828E-03 -.119E-02
   -.149E+02 -.259E+02 0.160E+00   0.149E+02 0.256E+02 -.201E+00   -.677E-01 0.230E+00 0.394E-01   -.583E-03 0.827E-03 0.120E-02
   -.305E+02 0.703E-01 0.396E+00   0.311E+02 0.300E+00 -.489E+00   -.611E+00 -.371E+00 0.903E-01   -.799E-03 -.470E-03 0.245E-02
   0.305E+02 -.705E-01 -.396E+00   -.311E+02 -.300E+00 0.489E+00   0.611E+00 0.371E+00 -.903E-01   0.799E-03 0.470E-03 -.246E-02
   0.156E+02 -.270E+02 -.237E+00   -.161E+02 0.283E+02 0.288E+00   0.525E+00 -.131E+01 -.499E-01   0.103E-02 -.129E-02 -.735E-03
   -.156E+02 0.270E+02 0.238E+00   0.161E+02 -.283E+02 -.288E+00   -.525E+00 0.131E+01 0.499E-01   -.103E-02 0.129E-02 0.733E-03
   0.149E+02 0.259E+02 -.160E+00   -.149E+02 -.256E+02 0.201E+00   0.677E-01 -.230E+00 -.394E-01   0.583E-03 -.827E-03 -.983E-03
   -.149E+02 -.259E+02 0.161E+00   0.149E+02 0.256E+02 -.201E+00   -.677E-01 0.230E+00 0.394E-01   -.583E-03 0.828E-03 0.981E-03
 -----------------------------------------------------------------------------------------------
   -.109E-03 -.184E-03 0.272E-03   0.533E-14 0.391E-13 -.604E-13   -.111E-15 0.000E+00 -.694E-17   -.581E-08 -.101E-07 0.379E-08


 POSITION                                       TOTAL-FORCE (eV/Angst)
 -----------------------------------------------------------------------------------
     -0.00773      0.00283      4.69993        -0.000992      0.001184      0.001706
      0.00773     -0.00283      8.66475         0.000992     -0.001184     -0.001706
      0.00757      0.00318      1.98238         0.000507      0.000650     -0.001750
     -0.00757     -0.00318     11.38230        -0.000507     -0.000650      0.001750
      2.40753      1.41328      9.15482        -0.000992      0.001184      0.001706
      2.42298      1.40763     13.11964         0.000992     -0.001184     -0.001706
      2.42282      1.41364      6.43727         0.000507      0.000650     -0.001750
      2.40769      1.40727      2.47252        -0.000507     -0.000650      0.001750
      0.02000      2.77571      0.24504        -0.000992      0.001184      0.001706
      0.03546      2.77006      4.20986         0.000992     -0.001184     -0.001706
      0.03529      2.77607     10.89216         0.000507      0.000650     -0.001750
      0.02016      2.76970      6.92741        -0.000507     -0.000650      0.001750
      1.47188      0.01095      3.33677         0.000075     -0.001479     -0.000514
      3.33090      0.03708     10.02791        -0.000075      0.001479      0.000514
     -0.72583      1.26782      3.34327        -0.000534     -0.000534     -0.000030
     -1.63396      2.86749     10.02141         0.000534      0.000534      0.000030
      1.69651      2.90166      3.34347         0.000829      0.000111      0.000587
      0.74647      1.28168     10.02121        -0.000829     -0.000111     -0.000587
      3.88713      1.42141      7.79166         0.000075     -0.001479     -0.000514
      0.94337      1.39951      1.11813        -0.000075      0.001479      0.000514
      1.68942      2.67828      7.79816        -0.000534     -0.000534     -0.000030
      3.14108      0.14263      1.11163         0.000534      0.000534      0.000030
      1.66878      0.12877      7.79836         0.000829      0.000111      0.000587
      3.16172      2.69214      1.11142        -0.000829     -0.000111     -0.000587
      1.49961      2.78384     12.24655         0.000075     -0.001479     -0.000514
     -1.44415      2.76193      5.57302        -0.000075      0.001479      0.000514
     -0.69810      4.04071     12.25305        -0.000534     -0.000534     -0.000030
      0.75356      1.50506      5.56652         0.000534      0.000534      0.000030
     -0.71874      1.49120     12.25326         0.000829      0.000111      0.000587
      0.77420      4.05457      5.56632        -0.000829     -0.000111     -0.000587
 -----------------------------------------------------------------------------------
    total drift:                               -0.000109     -0.000184      0.000272


--------------------------------------------------------------------------------------------------------



  FREE ENERGIE OF THE ION-ELECTRON SYSTEM (eV)
  ---------------------------------------------------
  free  energy   TOTEN  =      -226.36799291 eV

  energy  without entropy=     -226.36799291  energy(sigma->0) =     -226.36799291

 d Force = 0.1628740E-04[ 0.793E-05, 0.246E-04]  d Energy = 0.1658653E-04-0.299E-06
 d Force = 0.4719423E-01[ 0.471E-01, 0.473E-01]  d Ewald  = 0.4719382E-01 0.417E-06


--------------------------------------------------------------------------------------------------------


    POTLOK:  cpu time    0.02: real time    0.02


--------------------------------------------------------------------------------------------------------


 Conjugate gradient step on ions:
 trial-energy change:   -0.000017  1 .order   -0.000016   -0.000025   -0.000008
  (g-gl).g = 0.148E-04      g.g   = 0.150E-04  gl.gl    = 0.126E-03
 g(Force)  = 0.150E-04   g(Stress)= 0.000E+00 ortho     =-0.251E-06
 gamma     =   0.11718
 trial     =   1.65091
 opt step  =   2.43385  (harmonic =   2.43385) maximal distance =0.00030993
 next E    =  -226.367994   (d E  =  -0.00002)


--------------------------------------------------------------------------------------------------------


    WAVPRE:  cpu time    0.00: real time    0.00
 FEWALD executed in parallel
    FEWALD:  cpu time    0.00: real time    0.00
    ORTHCH:  cpu time    0.93: real time    0.94
     LOOP+:  cpu time   46.08: real time   46.29


----------------------------------------- Iteration    9(   1)  ---------------------------------------


    POTLOK:  cpu time    0.02: real time    0.02
    SETDIJ:  cpu time    0.00: real time    0.00
     EDDAV:  cpu time   11.88: real time   11.90
       DOS:  cpu time    0.00: real time    0.00
    CHARGE:  cpu time    0.50: real time    0.50
    MIXING:  cpu time    0.00: real time    0.00
    --------------------------------------------
      LOOP:  cpu time   12.40: real time   12.42

 eigenvalue-minimisations  : 25544
 total energy-change (2. order) : 0.2657122E-06  (-0.7733632E-04)
 number of electron     143.9999984 magnetization 
 augmentation part       11.8546415 magnetization 

 Broyden mixing:
  rms(total) = 0.39253E-03    rms(broyden)= 0.39218E-03
  rms(prec ) = 0.44189E-03
  weight for this iteration     100.00

 Free energy of the ion-electron system (eV)
  ---------------------------------------------------
  alpha Z        PSCENC =       217.48342038
  Ewald energy   TEWEN  =     -7082.04917873
  -Hartree energ DENC   =     -2270.75879774
  -exchange      EXHF   =         0.00000000
  -V(xc)+E(xc)   XCENC  =       220.76741224
  PAW double counting   =      6035.44943739    -5691.12744855
  entropy T*S    EENTRO =        -0.00000000
  eigenvalues    EBANDS =       -94.62057015
  atomic energy  EATOM  =      8438.48773170
  ---------------------------------------------------
  free energy    TOTEN  =      -226.36799345 eV

  energy without entropy =     -226.36799345  energy(sigma->0) =     -226.36799345
