AlO                                     
           1
     4.802777    0.048028    0.000000
    -2.359795    4.135313    0.000000
     0.000000    0.000000   13.364679
   Al   O 
  12  18
Direct configuration=     1
   0.00000000  0.00000000  0.35221672
   0.00000000  0.00000000  0.64778325
   0.00000000  0.00000000  0.14778328
   0.00000000  0.00000000  0.85221675
   0.66666669  0.33333334  0.68555007
   0.66666669  0.33333334  0.98111662
   0.66666669  0.33333334  0.48111662
   0.66666669  0.33333334  0.18555001
   0.33333334  0.66666669  0.01888338
   0.33333334  0.66666669  0.31444993
   0.33333334  0.66666669  0.81444993
   0.33333334  0.66666669  0.51888338
   0.30611761  0.00000000  0.25000000
   0.69388239  0.00000000  0.75000000
   0.00000000  0.30611761  0.25000000
   0.00000000  0.69388239  0.75000000
   0.69388239  0.69388239  0.25000000
   0.30611761  0.30611761  0.75000000
   0.97278430  0.33333334  0.58333331
   0.36054904  0.33333334  0.08333334
   0.66666669  0.63945093  0.58333331
   0.66666669  0.02721572  0.08333334
   0.36054904  0.02721572  0.58333331
   0.97278430  0.63945093  0.08333334
   0.63945093  0.66666669  0.91666669
   0.02721572  0.66666669  0.41666666
   0.33333334  0.97278430  0.91666669
   0.33333334  0.36054904  0.41666666
   0.02721572  0.36054904  0.91666669
   0.63945093  0.97278430  0.41666666
Direct configuration=     2
  -0.00059989  0.00044154  0.35199689
   0.00059989 -0.00044154  0.64800308
   0.00096702  0.00039582  0.14800288
  -0.00096702 -0.00039582  0.85199715
   0.66606680  0.33377488  0.68533023
   0.66726658  0.33289180  0.98133645
   0.66763371  0.33372916  0.48133622
   0.66569967  0.33293753  0.18533041
   0.33273345  0.66710823  0.01866355
   0.33393323  0.66622515  0.31466977
   0.33430036  0.66706250  0.81466954
   0.33236632  0.66627087  0.51866378
   0.30624257 -0.00003594  0.24990518
   0.69375743  0.00003594  0.75009482
  -0.00005250  0.30633682  0.25004275
   0.00005250  0.69366318  0.74995725
   0.69379477  0.69381109  0.25005189
   0.30620523  0.30618891  0.74994811
   0.97290925  0.33329740  0.58323850
   0.36042409  0.33336929  0.08342815
   0.66661418  0.63967014  0.58337606
   0.66671919  0.02699651  0.08329059
   0.36046143  0.02714443  0.58338521
   0.97287191  0.63952222  0.08328144
   0.63957588  0.66663074  0.91657187
   0.02709077  0.66670263  0.41676147
   0.33328084  0.97300351  0.91670944
   0.33338585  0.36032983  0.41662391
   0.02712811  0.36047775  0.91671858
   0.63953854  0.97285559  0.41661476
Direct configuration=     3
  -0.00122037  0.00089824  0.35176951
   0.00122037 -0.00089824  0.64823046
   0.00196723  0.00080522  0.14823002
  -0.00196723 -0.00080522  0.85177001
   0.66544632  0.33423158  0.68510285
   0.66788706  0.33243510  0.98156383
   0.66863392  0.33413856  0.48156336
   0.66469945  0.33252812  0.18510327
   0.33211297  0.66756493  0.01843617
   0.33455371  0.66576845  0.31489715
   0.33530058  0.66747191  0.81489668
   0.33136611  0.66586147  0.51843664
   0.30637181 -0.00007312  0.24980711
   0.69362819  0.00007312  0.75019289
  -0.00010681  0.30656356  0.25008697
   0.00010681  0.69343644  0.74991303
   0.69370415  0.69373735  0.25010557
   0.30629585  0.30626265  0.74989443
   0.97303850  0.33326023  0.58314043
   0.36029484  0.33340646  0.08352622
   0.66655988  0.63989687  0.58342028
   0.66677350  0.02676977  0.08324637
   0.36037081  0.02707069  0.58343888
   0.97296253  0.63959596  0.08322777
   0.63970513  0.66659357  0.91647380
   0.02696152  0.66673980  0.41685954
   0.33322653  0.97323025  0.91675365
   0.33344015  0.36010310  0.41657969
   0.02703749  0.36040401  0.91677226
   0.63962916  0.97292933  0.41656109
Direct configuration=     4
  -0.00126006  0.00079303  0.35170114
   0.00126006 -0.00079303  0.64829883
   0.00202952  0.00079348  0.14829859
  -0.00202952 -0.00079348  0.85170144
   0.66540663  0.33412637  0.68503448
   0.66792675  0.33254032  0.98163221
   0.66869620  0.33412682  0.48163193
   0.66463717  0.33253986  0.18503470
   0.33207328  0.66745971  0.01836779
   0.33459340  0.66587366  0.31496552
   0.33536286  0.66746017  0.81496524
   0.33130383  0.66587321  0.51836807
   0.30619638 -0.00054456  0.24981775
   0.69380362  0.00054456  0.75018225
  -0.00032717  0.30664444  0.25008531
   0.00032717  0.69335556  0.74991469
   0.69392036  0.69370129  0.25009624
   0.30607964  0.30629871  0.74990376
   0.97286307  0.33278878  0.58315106
   0.36047028  0.33387790  0.08351559
   0.66633952  0.63997775  0.58341862
   0.66699385  0.02668890  0.08324803
   0.36058701  0.02703462  0.58342955
   0.97274633  0.63963203  0.08323709
   0.63952970  0.66612213  0.91648444
   0.02713695  0.66721125  0.41684891
   0.33300618  0.97331113  0.91675200
   0.33366051  0.36002222  0.41658135
   0.02725369  0.36036795  0.91676293
   0.63941296  0.97296540  0.41657042
Direct configuration=     5
  -0.00127059  0.00076510  0.35168299
   0.00127059 -0.00076510  0.64831698
   0.00204604  0.00079036  0.14831678
  -0.00204604 -0.00079036  0.85168325
   0.66539610  0.33409845  0.68501634
   0.66793728  0.33256824  0.98165035
   0.66871273  0.33412371  0.48165012
   0.66462064  0.33254298  0.18501650
   0.33206275  0.66743179  0.01834965
   0.33460393  0.66590158  0.31498366
   0.33537939  0.66745705  0.81498344
   0.33128730  0.66587632  0.51834988
   0.30614983 -0.00066966  0.24982057
   0.69385017  0.00066966  0.75017943
  -0.00038564  0.30666590  0.25008487
   0.00038564  0.69333410  0.74991513
   0.69397773  0.69369172  0.25009377
   0.30602227  0.30630828  0.74990623
   0.97281651  0.33266368  0.58315389
   0.36051683  0.33400301  0.08351276
   0.66628104  0.63999921  0.58341818
   0.66705233  0.02666743  0.08324847
   0.36064439  0.02702505  0.58342708
   0.97268896  0.63964160  0.08323957
   0.63948314  0.66599702  0.91648726
   0.02718351  0.66733635  0.41684608
   0.33294770  0.97333259  0.91675156
   0.33371899  0.36000076  0.41658179
   0.02731106  0.36035837  0.91676045
   0.63935559  0.97297497  0.41657289
Direct configuration=     6
  -0.00126511  0.00073935  0.35167086
   0.00126511 -0.00073935  0.64832911
   0.00198851  0.00077488  0.14832821
  -0.00198851 -0.00077488  0.85167182
   0.66540158  0.33407269  0.68500421
   0.66793179  0.33259399  0.98166248
   0.66865520  0.33410822  0.48166156
   0.66467818  0.33255846  0.18500507
   0.33206824  0.66740604  0.01833752
   0.33459845  0.66592734  0.31499579
   0.33532185  0.66744157  0.81499487
   0.33134483  0.66589181  0.51833844
   0.30610048 -0.00074916  0.24976600
   0.69389952  0.00074916  0.75023400
  -0.00042082  0.30663937  0.25011112
   0.00042082  0.69336063  0.74988888
   0.69399804  0.69366800  0.25012236
   0.30600196  0.30633200  0.74987764
   0.97276717  0.33258418  0.58309931
   0.36056617  0.33408250  0.08356734
   0.66624586  0.63997269  0.58344443
   0.66708751  0.02669396  0.08322222
   0.36066470  0.02700133  0.58345568
   0.97266865  0.63966532  0.08321097
   0.63943380  0.66591753  0.91643268
   0.02723285  0.66741585  0.41690066
   0.33291252  0.97330606  0.91677781
   0.33375417  0.36002729  0.41655554
   0.02733137  0.36033466  0.91678905
   0.63933527  0.97299869  0.41654429
Direct configuration=     7
  -0.00125690  0.00070085  0.35165273
   0.00125690 -0.00070085  0.64834724
   0.00190250  0.00075174  0.14834530
  -0.00190250 -0.00075174  0.85165473
   0.66540978  0.33403419  0.68498607
   0.66792359  0.33263249  0.98168061
   0.66856919  0.33408508  0.48167864
   0.66476419  0.33258160  0.18498798
   0.33207644  0.66736754  0.01831939
   0.33459025  0.66596584  0.31501393
   0.33523584  0.66741843  0.81501196
   0.33143084  0.66591495  0.51832136
   0.30602672 -0.00086800  0.24968441
   0.69397328  0.00086800  0.75031559
  -0.00047342  0.30659971  0.25015036
   0.00047342  0.69340029  0.74984964
   0.69402840  0.69363254  0.25016512
   0.30597160  0.30636746  0.74983488
   0.97269340  0.33246534  0.58301772
   0.36063994  0.33420134  0.08364892
   0.66619327  0.63993303  0.58348368
   0.66714010  0.02673362  0.08318297
   0.36069506  0.02696587  0.58349843
   0.97263828  0.63970077  0.08316822
   0.63936003  0.66579869  0.91635110
   0.02730662  0.66753469  0.41698225
   0.33285993  0.97326640  0.91681705
   0.33380676  0.36006695  0.41651629
   0.02736174  0.36029920  0.91683180
   0.63930491  0.97303415  0.41650154
Direct configuration=     8
  -0.00126546  0.00069873  0.35166794
   0.00126546 -0.00069873  0.64833203
   0.00194237  0.00074713  0.14832957
  -0.00194237 -0.00074713  0.85167046
   0.66540123  0.33403208  0.68500128
   0.66793214  0.33263461  0.98166540
   0.66860906  0.33408047  0.48166291
   0.66472431  0.33258622  0.18500371
   0.33206789  0.66736542  0.01833460
   0.33459880  0.66596795  0.31499872
   0.33527572  0.66741381  0.81499623
   0.33139097  0.66591956  0.51833709
   0.30601946 -0.00090605  0.24967048
   0.69398054  0.00090605  0.75032952
  -0.00048753  0.30659038  0.25015689
   0.00048753  0.69340962  0.74984311
   0.69403750  0.69361681  0.25017211
   0.30596250  0.30638319  0.74982789
   0.97268614  0.33242729  0.58300379
   0.36064720  0.33423940  0.08366286
   0.66617915  0.63992370  0.58349021
   0.66715422  0.02674295  0.08317644
   0.36070415  0.02695014  0.58350542
   0.97262919  0.63971650  0.08316123
   0.63935277  0.66576063  0.91633716
   0.02731388  0.66757274  0.41699618
   0.33284581  0.97325707  0.91682358
   0.33382088  0.36007627  0.41650976
   0.02737083  0.36028347  0.91683879
   0.63929582  0.97304988  0.41649455
