       N       E                     dE             d eps       ncg     rms          rms(c)
DAV:   1     0.939893582666E+03    0.93989E+03   -0.54121E+04 49056   0.176E+03
DAV:   2     0.317738359387E+01   -0.93672E+03   -0.90566E+03 49056   0.403E+02
DAV:   3    -0.924193823593E+02   -0.95597E+02   -0.90939E+02 51216   0.150E+02
DAV:   4    -0.960474533270E+02   -0.36281E+01   -0.35622E+01 57472   0.287E+01
DAV:   5    -0.961416169051E+02   -0.94164E-01   -0.93927E-01 59364   0.400E+00    0.344E+01
RMM:   6    -0.103445063194E+03   -0.73034E+01   -0.42865E+02 49157   0.124E+02    0.250E+01
RMM:   7    -0.789308914490E+02    0.24514E+02   -0.92154E+01 49056   0.618E+01    0.269E+00
RMM:   8    -0.790169956074E+02   -0.86104E-01   -0.91454E+00 49056   0.157E+01    0.468E+00
RMM:   9    -0.785717894374E+02    0.44521E+00   -0.10168E+00 49056   0.640E+00    0.562E-01
RMM:  10    -0.785654561775E+02    0.63333E-02   -0.35768E-02 49056   0.767E-01    0.293E-01
RMM:  11    -0.785635620214E+02    0.18942E-02   -0.17188E-02 49056   0.569E-01    0.862E-02
RMM:  12    -0.785634513509E+02    0.11067E-03   -0.47848E-04 49061   0.106E-01    0.438E-02
RMM:  13    -0.785634373068E+02    0.14044E-04   -0.16067E-04 49057   0.715E-02    0.199E-02
RMM:  14    -0.785634274808E+02    0.98259E-05   -0.24397E-05 28955   0.307E-02
   1 F= -.78563427E+02 E0= -.78558956E+02  d E =-.785634E+02
       N       E                     dE             d eps       ncg     rms          rms(c)
DAV:   1    -0.785647154477E+02   -0.12781E-02   -0.14021E-01 52960   0.136E+00    0.370E-02
RMM:   2    -0.785647259774E+02   -0.10530E-04   -0.51455E-04 49058   0.136E-01    0.251E-02
RMM:   3    -0.785647089704E+02    0.17007E-04   -0.12163E-04 49049   0.559E-02    0.139E-02
RMM:   4    -0.785647045532E+02    0.44172E-05   -0.13655E-05 26772   0.221E-02
   2 F= -.78564705E+02 E0= -.78560231E+02  d E =-.127707E-02
       N       E                     dE             d eps       ncg     rms          rms(c)
DAV:   1    -0.785667912639E+02   -0.20823E-02   -0.12607E+00 50220   0.409E+00    0.107E-01
RMM:   2    -0.785666951180E+02    0.96146E-04   -0.38488E-03 49056   0.385E-01    0.523E-03
RMM:   3    -0.785667070241E+02   -0.11906E-04   -0.14206E-04 48040   0.540E-02    0.389E-03
RMM:   4    -0.785667078343E+02   -0.81022E-06   -0.12504E-05 28850   0.188E-02
   3 F= -.78566708E+02 E0= -.78562225E+02  d E =-.328035E-02
       N       E                     dE             d eps       ncg     rms          rms(c)
DAV:   1    -0.785667843968E+02   -0.77373E-04   -0.58281E-02 51184   0.879E-01    0.229E-02
RMM:   2    -0.785667806772E+02    0.37196E-05   -0.17788E-04 48971   0.821E-02    0.238E-03
RMM:   3    -0.785667808450E+02   -0.16780E-06   -0.61360E-06 26749   0.131E-02    0.103E-03
RMM:   4    -0.785667810911E+02   -0.24614E-06   -0.18270E-06 25793   0.836E-03
   4 F= -.78566781E+02 E0= -.78562296E+02  d E =-.335361E-02
       N       E                     dE             d eps       ncg     rms          rms(c)
DAV:   1    -0.785672863561E+02   -0.50551E-03   -0.63882E-02 49684   0.940E-01    0.241E-02
RMM:   2    -0.785673154614E+02   -0.29105E-04   -0.35310E-04 49056   0.120E-01    0.353E-02
RMM:   3    -0.785672830904E+02    0.32371E-04   -0.16161E-04 49025   0.732E-02    0.670E-03
RMM:   4    -0.785672838833E+02   -0.79295E-06   -0.10472E-05 26773   0.136E-02
   5 F= -.78567284E+02 E0= -.78562817E+02  d E =-.502792E-03
       N       E                     dE             d eps       ncg     rms          rms(c)
DAV:   1    -0.785676987311E+02   -0.41564E-03   -0.26231E-01 49228   0.191E+00    0.487E-02
RMM:   2    -0.785676864995E+02    0.12232E-04   -0.10509E-03 49056   0.202E-01    0.912E-03
RMM:   3    -0.785676878355E+02   -0.13360E-05   -0.46699E-05 34846   0.324E-02    0.324E-03
RMM:   4    -0.785676885029E+02   -0.66736E-06   -0.62716E-06 27027   0.143E-02
   6 F= -.78567689E+02 E0= -.78563259E+02  d E =-.907412E-03
       N       E                     dE             d eps       ncg     rms          rms(c)
DAV:   1    -0.785679307467E+02   -0.24291E-03   -0.12486E-01 49832   0.130E+00    0.318E-02
RMM:   2    -0.785679422985E+02   -0.11552E-04   -0.36862E-04 49056   0.126E-01    0.331E-02
RMM:   3    -0.785679347387E+02    0.75598E-05   -0.30346E-04 49056   0.988E-02    0.253E-02
RMM:   4    -0.785679187183E+02    0.16020E-04   -0.25918E-05 28335   0.336E-02    0.854E-03
RMM:   5    -0.785679159241E+02    0.27941E-05   -0.18615E-05 26122   0.190E-02
   7 F= -.78567916E+02 E0= -.78563487E+02  d E =-.227421E-03
       N       E                     dE             d eps       ncg     rms          rms(c)
DAV:   1    -0.785679864727E+02   -0.67754E-04   -0.10166E-01 49296   0.117E+00    0.290E-02
RMM:   2    -0.785679738706E+02    0.12602E-04   -0.22600E-04 49056   0.100E-01    0.612E-03
RMM:   3    -0.785679739234E+02   -0.52795E-07   -0.72438E-06 26793   0.136E-02    0.409E-03
RMM:   4    -0.785679738749E+02    0.48445E-07   -0.12285E-06 25412   0.538E-03
   8 F= -.78567974E+02 E0= -.78563545E+02  d E =-.285372E-03
       N       E                     dE             d eps       ncg     rms          rms(c)
DAV:   1    -0.785679736872E+02    0.23616E-06   -0.28070E-04 52936   0.623E-02    0.192E-03
RMM:   2    -0.785679738096E+02   -0.12241E-06   -0.76809E-07 24767   0.607E-03    0.634E-04
RMM:   3    -0.785679738326E+02   -0.23019E-07   -0.23999E-10  2764   0.177E-03    0.675E-04
RMM:   4    -0.785679737990E+02    0.33637E-07   -0.14644E-10  2003   0.171E-03
   9 F= -.78567974E+02 E0= -.78563545E+02  d E =-.285296E-03
       N       E                     dE             d eps       ncg     rms          rms(c)
DAV:   1    -0.785680107144E+02   -0.36882E-04   -0.14231E-02 49368   0.440E-01    0.111E-02
RMM:   2    -0.785680113532E+02   -0.63874E-06   -0.39906E-05 34284   0.454E-02    0.113E-02
RMM:   3    -0.785680105971E+02    0.75605E-06   -0.16879E-05 24930   0.250E-02    0.743E-03
RMM:   4    -0.785680102330E+02    0.36413E-06   -0.33100E-06 24717   0.883E-03
  10 F= -.78568010E+02 E0= -.78563577E+02  d E =-.364340E-04
       N       E                     dE             d eps       ncg     rms          rms(c)
DAV:   1    -0.785680274212E+02   -0.16824E-04   -0.18354E-02 49260   0.500E-01    0.129E-02
RMM:   2    -0.785680259319E+02    0.14893E-05   -0.41796E-05 35584   0.447E-02    0.456E-03
RMM:   3    -0.785680260601E+02   -0.12823E-06   -0.33157E-06 25355   0.101E-02    0.229E-03
RMM:   4    -0.785680261518E+02   -0.91716E-07   -0.60983E-07 21566   0.455E-03
  11 F= -.78568026E+02 E0= -.78563588E+02  d E =-.523528E-04
       N       E                     dE             d eps       ncg     rms          rms(c)
DAV:   1    -0.785680265183E+02   -0.45821E-06   -0.16620E-04 52352   0.478E-02    0.137E-03
RMM:   2    -0.785680265276E+02   -0.92347E-08   -0.39565E-07 22925   0.420E-03    0.303E-04
RMM:   3    -0.785680264875E+02    0.40098E-07   -0.23936E-09  2433   0.157E-03    0.284E-04
RMM:   4    -0.785680264709E+02    0.16535E-07   -0.71594E-10  1396   0.155E-03
  12 F= -.78568026E+02 E0= -.78563588E+02  d E =-.526719E-04
       N       E                     dE             d eps       ncg     rms          rms(c)
DAV:   1    -0.785680317348E+02   -0.52473E-05   -0.19743E-03 49336   0.165E-01    0.409E-03
RMM:   2    -0.785680345763E+02   -0.28416E-05   -0.16943E-05 24745   0.273E-02    0.116E-02
RMM:   3    -0.785680315863E+02    0.29900E-05   -0.16935E-05 24597   0.281E-02    0.293E-03
RMM:   4    -0.785680315344E+02    0.51932E-07   -0.12151E-06 24567   0.505E-03
  13 F= -.78568032E+02 E0= -.78563594E+02  d E =-.506343E-05
       N       E                     dE             d eps       ncg     rms          rms(c)
DAV:   1    -0.785680325350E+02   -0.94873E-06   -0.56934E-04 50176   0.885E-02    0.271E-03
RMM:   2    -0.785680324407E+02    0.94309E-07   -0.15055E-06 24646   0.850E-03    0.151E-03
RMM:   3    -0.785680325096E+02   -0.68916E-07   -0.56968E-07 24571   0.469E-03    0.727E-04
RMM:   4    -0.785680325445E+02   -0.34855E-07   -0.21591E-10  3350   0.211E-03
  14 F= -.78568033E+02 E0= -.78563596E+02  d E =-.607355E-05
       N       E                     dE             d eps       ncg     rms          rms(c)
DAV:   1    -0.785680325905E+02   -0.80871E-07   -0.24155E-05 30292   0.185E-02    0.480E-04
RMM:   2    -0.785680326242E+02   -0.33672E-07   -0.34280E-07 18277   0.355E-03    0.108E-04
RMM:   3    -0.785680326008E+02    0.23345E-07   -0.60198E-10  2633   0.178E-03    0.835E-05
RMM:   4    -0.785680325969E+02    0.39122E-08   -0.20839E-10  1642   0.174E-03
  15 F= -.78568033E+02 E0= -.78563596E+02  d E =-.612598E-05
       N       E                     dE             d eps       ncg     rms          rms(c)
DAV:   1    -0.785680325775E+02    0.23326E-07   -0.72404E-06 24924   0.101E-02    0.424E-04
RMM:   2    -0.785680325882E+02   -0.10719E-07   -0.16165E-07 14823   0.304E-03    0.273E-04
RMM:   3    -0.785680325919E+02   -0.36678E-08    0.00000E+00   429   0.153E-03    0.150E-04
RMM:   4    -0.785680326018E+02   -0.98856E-08    0.00000E+00   306   0.164E-03
  16 F= -.78568033E+02 E0= -.78563596E+02  d E =-.613084E-05
       N       E                     dE             d eps       ncg     rms          rms(c)
DAV:   1    -0.785680326124E+02   -0.20471E-07   -0.26283E-06 24884   0.609E-03    0.291E-04
RMM:   2    -0.785680326117E+02    0.63903E-09   -0.74580E-11   995   0.191E-03    0.220E-04
RMM:   3    -0.785680326097E+02    0.20674E-08   -0.51321E-09  1103   0.206E-03    0.136E-04
RMM:   4    -0.785680326110E+02   -0.13604E-08   -0.13249E-08  1899   0.212E-03
  17 F= -.78568033E+02 E0= -.78563596E+02  d E =-.614008E-05
       N       E                     dE             d eps       ncg     rms          rms(c)
DAV:   1    -0.785680326110E+02   -0.13529E-08   -0.63181E-07 24828   0.331E-03    0.328E-04
RMM:   2    -0.785680325929E+02    0.18126E-07   -0.77668E-11   609   0.178E-03    0.151E-04
RMM:   3    -0.785680325954E+02   -0.25125E-08   -0.66341E-09  1245   0.193E-03    0.749E-05
RMM:   4    -0.785680325958E+02   -0.42553E-09   -0.11071E-08  1683   0.191E-03
  18 F= -.78568033E+02 E0= -.78563596E+02  d E =-.612488E-05
       N       E                     dE             d eps       ncg     rms          rms(c)
DAV:   1    -0.785680326056E+02   -0.10174E-07   -0.25226E-07 24800   0.240E-03    0.314E-04
RMM:   2    -0.785680326139E+02   -0.83501E-08    0.00000E+00   536   0.150E-03    0.968E-05
RMM:   3    -0.785680326178E+02   -0.38593E-08   -0.30336E-11   356   0.166E-03    0.473E-05
RMM:   4    -0.785680326175E+02    0.27273E-09   -0.85143E-11   233   0.172E-03
  19 F= -.78568033E+02 E0= -.78563596E+02  d E =-.614657E-05
       N       E                     dE             d eps       ncg     rms          rms(c)
DAV:   1    -0.785680326218E+02   -0.40473E-08   -0.89044E-08 24812   0.188E-03    0.324E-04
RMM:   2    -0.785680326038E+02    0.17992E-07    0.00000E+00   435   0.129E-03    0.547E-05
RMM:   3    -0.785680326008E+02    0.30254E-08    0.00000E+00   280   0.139E-03    0.265E-05
RMM:   4    -0.785680325983E+02    0.24586E-08    0.00000E+00   206   0.149E-03
  20 F= -.78568033E+02 E0= -.78563596E+02  d E =-.612741E-05
       N       E                     dE             d eps       ncg     rms          rms(c)
DAV:   1    -0.785680326039E+02   -0.30510E-08   -0.49307E-08 24824   0.152E-03    0.285E-04
RMM:   2    -0.785680326163E+02   -0.12490E-07    0.00000E+00   363   0.108E-03    0.255E-05
RMM:   3    -0.785680326179E+02   -0.15577E-08    0.00000E+00   228   0.113E-03    0.118E-05
RMM:   4    -0.785680326187E+02   -0.75494E-09    0.00000E+00   171   0.118E-03
  21 F= -.78568033E+02 E0= -.78563596E+02  d E =-.614772E-05
       N       E                     dE             d eps       ncg     rms          rms(c)
DAV:   1    -0.785680342386E+02   -0.16207E-05   -0.11116E-03 49180   0.123E-01    0.301E-03
RMM:   2    -0.785680345812E+02   -0.34263E-06   -0.24598E-06 24547   0.111E-02    0.281E-03
RMM:   3    -0.785680343377E+02    0.24350E-06   -0.92530E-07 24529   0.588E-03    0.213E-03
RMM:   4    -0.785680339737E+02    0.36400E-06   -0.80483E-07 23327   0.594E-03
  22 F= -.78568034E+02 E0= -.78563597E+02  d E =-.135506E-05
