AlCu                                    
           1
    11.877378   -0.000086    0.008568
     0.000000    4.104732   -0.041047
    -3.894237   -0.056849    5.684858
   Al   Cu
  10  10
Direct configuration=     1
   0.50000000  0.00000000  0.50000000
   0.15587366  0.00000000  0.46137374
   0.84412632  0.00000000  0.53862623
   0.87805559  0.50000000  0.99541334
   0.12194440  0.50000000  0.00458663
   0.00000000  0.50000000  0.50000000
   0.65587368  0.50000000  0.46137374
   0.34412635  0.50000000  0.53862623
   0.37805559  0.00000000  0.99541334
   0.62194441  0.00000000  0.00458663
   0.00000000  0.00000000  0.00000000
   0.25805145  0.00000000  0.24172886
   0.74194852  0.00000000  0.75827112
   0.10866387  0.00000000  0.77167894
   0.89133614  0.00000000  0.22832103
   0.50000000  0.50000000  0.00000000
   0.75805148  0.50000000  0.24172886
   0.24194855  0.50000000  0.75827112
   0.60866386  0.50000000  0.77167894
   0.39133614  0.50000000  0.22832103
Direct configuration=     2
   0.50000000 -0.00000000  0.50000000
   0.15592574 -0.00033921  0.46154262
   0.84407425  0.00033921  0.53845735
   0.87798453  0.50001957  0.99542397
   0.12201546  0.49998043  0.00457600
   0.00000000  0.50000000  0.50000000
   0.65592575  0.49966079  0.46154262
   0.34407428  0.50033921  0.53845735
   0.37798453  0.00001957  0.99542397
   0.62201547 -0.00001957  0.00457600
   0.00000000 -0.00000000  0.00000000
   0.25803711  0.00014246  0.24135974
   0.74196286 -0.00014246  0.75864025
   0.10869848 -0.00001529  0.77175853
   0.89130153  0.00001529  0.22824144
   0.50000000  0.50000000  0.00000000
   0.75803714  0.50014246  0.24135974
   0.24196289  0.49985754  0.75864025
   0.60869847  0.49998471  0.77175853
   0.39130153  0.50001529  0.22824144
Direct configuration=     3
   0.50000000 -0.00000000  0.50000000
   0.15608198 -0.00135684  0.46204926
   0.84391801  0.00135684  0.53795071
   0.87777134  0.50007829  0.99545585
   0.12222865  0.49992171  0.00454412
   0.00000000  0.50000000  0.50000000
   0.65608199  0.49864316  0.46204926
   0.34391804  0.50135684  0.53795071
   0.37777134  0.00007829  0.99545585
   0.62222866 -0.00007829  0.00454412
   0.00000000 -0.00000000  0.00000000
   0.25799409  0.00056985  0.24025235
   0.74200588 -0.00056985  0.75974763
   0.10880231 -0.00006115  0.77199731
   0.89119770  0.00006115  0.22800266
   0.50000000  0.50000000  0.00000000
   0.75799412  0.50056985  0.24025235
   0.24200591  0.49943015  0.75974763
   0.60880230  0.49993885  0.77199731
   0.39119770  0.50006115  0.22800266
Direct configuration=     4
   0.50000000 -0.00000000  0.50000000
   0.15611556 -0.00157556  0.46215816
   0.84388443  0.00157556  0.53784181
   0.87772552  0.50009091  0.99546270
   0.12227447  0.49990909  0.00453727
   0.00000000  0.50000000  0.50000000
   0.65611557  0.49842444  0.46215816
   0.34388446  0.50157556  0.53784181
   0.37772552  0.00009091  0.99546270
   0.62227448 -0.00009091  0.00453727
   0.00000000 -0.00000000  0.00000000
   0.25798484  0.00066171  0.24001434
   0.74201513 -0.00066171  0.75998565
   0.10882463 -0.00007101  0.77204863
   0.89117539  0.00007101  0.22795134
   0.50000000  0.50000000  0.00000000
   0.75798487  0.50066171  0.24001434
   0.24201516  0.49933829  0.75998565
   0.60882461  0.49992899  0.77204863
   0.39117539  0.50007101  0.22795134
Direct configuration=     5
   0.50000000 -0.00000000  0.50000000
   0.15627824 -0.00195440  0.46218381
   0.84372174  0.00195440  0.53781616
   0.87778263  0.50002587  0.99551050
   0.12221736  0.49997413  0.00448948
   0.00000000  0.50000000  0.50000000
   0.65627826  0.49804560  0.46218381
   0.34372177  0.50195440  0.53781616
   0.37778263  0.00002587  0.99551050
   0.62221737 -0.00002587  0.00448948
   0.00000000 -0.00000000  0.00000000
   0.25793385  0.00091882  0.23985123
   0.74206612 -0.00091882  0.76014875
   0.10873275 -0.00014847  0.77200075
   0.89126726  0.00014847  0.22799922
   0.50000000  0.50000000  0.00000000
   0.75793388  0.50091882  0.23985123
   0.24206615  0.49908118  0.76014875
   0.60873274  0.49985153  0.77200075
   0.39126726  0.50014847  0.22799922
Direct configuration=     6
   0.50000000 -0.00000000  0.50000000
   0.15660794 -0.00272217  0.46223579
   0.84339205  0.00272217  0.53776418
   0.87789835  0.49989406  0.99560735
   0.12210164  0.50010594  0.00439263
   0.00000000  0.50000000  0.50000000
   0.65660795  0.49727783  0.46223579
   0.34339208  0.50272217  0.53776418
   0.37789835 -0.00010594  0.99560735
   0.62210165  0.00010594  0.00439263
   0.00000000 -0.00000000  0.00000000
   0.25783051  0.00143988  0.23952069
   0.74216946 -0.00143988  0.76047930
   0.10854656 -0.00030544  0.77190373
   0.89145346  0.00030544  0.22809624
   0.50000000  0.50000000  0.00000000
   0.75783054  0.50143988  0.23952069
   0.24216949  0.49856012  0.76047930
   0.60854654  0.49969456  0.77190373
   0.39145346  0.50030544  0.22809624
Direct configuration=     7
   0.50000000 -0.00000000  0.50000000
   0.15667312 -0.00292790  0.46238041
   0.84332687  0.00292790  0.53761956
   0.87797010  0.49979960  0.99567671
   0.12202989  0.50020040  0.00432327
   0.00000000  0.50000000  0.50000000
   0.65667313  0.49707210  0.46238041
   0.34332690  0.50292790  0.53761956
   0.37797010 -0.00020040  0.99567671
   0.62202990  0.00020040  0.00432327
   0.00000000 -0.00000000  0.00000000
   0.25788649  0.00175147  0.23951329
   0.74211348 -0.00175147  0.76048669
   0.10839132 -0.00037982  0.77157647
   0.89160869  0.00037982  0.22842350
   0.50000000  0.50000000  0.00000000
   0.75788652  0.50175147  0.23951329
   0.24211351  0.49824853  0.76048669
   0.60839131  0.49962018  0.77157647
   0.39160869  0.50037982  0.22842350
Direct configuration=     8
   0.50000000 -0.00000000  0.50000000
   0.15673194 -0.00311358  0.46251094
   0.84326805  0.00311358  0.53748903
   0.87803485  0.49971434  0.99573930
   0.12196514  0.50028566  0.00426068
  -0.00000000  0.50000000  0.50000000
   0.65673195  0.49688642  0.46251094
   0.34326808  0.50311358  0.53748903
   0.37803485 -0.00028566  0.99573930
   0.62196515  0.00028566  0.00426068
  -0.00000000 -0.00000000  0.00000000
   0.25793701  0.00203268  0.23950662
   0.74206296 -0.00203268  0.76049336
   0.10825122 -0.00044694  0.77128111
   0.89174879  0.00044694  0.22871886
   0.50000000  0.50000000  0.00000000
   0.75793704  0.50203268  0.23950662
   0.24206299  0.49796732  0.76049336
   0.60825121  0.49955306  0.77128111
   0.39174879  0.50044694  0.22871886
Direct configuration=     9
   0.50000000 -0.00000000  0.50000000
   0.15672885 -0.00310384  0.46250409
   0.84327113  0.00310384  0.53749589
   0.87803145  0.49971881  0.99573601
   0.12196854  0.50028119  0.00426396
  -0.00000000  0.50000000  0.50000000
   0.65672887  0.49689616  0.46250409
   0.34327116  0.50310384  0.53749589
   0.37803145 -0.00028119  0.99573601
   0.62196855  0.00028119  0.00426396
  -0.00000000 -0.00000000  0.00000000
   0.25793436  0.00201792  0.23950697
   0.74206561 -0.00201792  0.76049301
   0.10825858 -0.00044342  0.77129662
   0.89174144  0.00044342  0.22870335
   0.50000000  0.50000000  0.00000000
   0.75793439  0.50201792  0.23950697
   0.24206564  0.49798208  0.76049301
   0.60825856  0.49955658  0.77129662
   0.39174144  0.50044342  0.22870335
Direct configuration=    10
   0.50000000 -0.00000000  0.50000000
   0.15673822 -0.00304123  0.46251473
   0.84326177  0.00304123  0.53748524
   0.87799288  0.49968442  0.99575552
   0.12200711  0.50031558  0.00424445
  -0.00000000  0.50000000  0.50000000
   0.65673823  0.49695877  0.46251473
   0.34326180  0.50304123  0.53748524
   0.37799288 -0.00031558  0.99575552
   0.62200712  0.00031558  0.00424445
  -0.00000000 -0.00000000  0.00000000
   0.25789481  0.00209934  0.23945258
   0.74210516 -0.00209934  0.76054740
   0.10820108 -0.00043837  0.77119804
   0.89179893  0.00043837  0.22880193
   0.50000000  0.50000000  0.00000000
   0.75789484  0.50209934  0.23945258
   0.24210519  0.49790066  0.76054740
   0.60820107  0.49956163  0.77119804
   0.39179893  0.50043837  0.22880193
Direct configuration=    11
   0.50000000 -0.00000000  0.50000000
   0.15674885 -0.00297016  0.46252682
   0.84325113  0.00297016  0.53747316
   0.87794909  0.49964537  0.99577767
   0.12205090  0.50035463  0.00422230
  -0.00000000  0.50000000  0.50000000
   0.65674887  0.49702984  0.46252682
   0.34325116  0.50297016  0.53747316
   0.37794909 -0.00035463  0.99577767
   0.62205091  0.00035463  0.00422230
  -0.00000000 -0.00000000  0.00000000
   0.25784992  0.00219178  0.23939083
   0.74215005 -0.00219178  0.76060915
   0.10813581 -0.00043264  0.77108614
   0.89186421  0.00043264  0.22891383
   0.50000000  0.50000000  0.00000000
   0.75784995  0.50219178  0.23939083
   0.24215008  0.49780822  0.76060915
   0.60813579  0.49956736  0.77108614
   0.39186421  0.50043264  0.22891383
Direct configuration=    12
   0.50000000 -0.00000000  0.50000000
   0.15674986 -0.00296341  0.46252796
   0.84325012  0.00296341  0.53747201
   0.87794493  0.49964166  0.99577978
   0.12205506  0.50035834  0.00422020
  -0.00000000  0.50000000  0.50000000
   0.65674988  0.49703659  0.46252796
   0.34325015  0.50296341  0.53747201
   0.37794493 -0.00035834  0.99577978
   0.62205507  0.00035834  0.00422020
  -0.00000000 -0.00000000  0.00000000
   0.25784566  0.00220056  0.23938497
   0.74215431 -0.00220056  0.76061502
   0.10812961 -0.00043209  0.77107551
   0.89187041  0.00043209  0.22892446
   0.50000000  0.50000000  0.00000000
   0.75784569  0.50220056  0.23938497
   0.24215434  0.49779944  0.76061502
   0.60812959  0.49956791  0.77107551
   0.39187041  0.50043209  0.22892446
Direct configuration=    13
   0.50000000 -0.00000000  0.50000000
   0.15677050 -0.00293837  0.46252433
   0.84322948  0.00293837  0.53747565
   0.87793776  0.49963150  0.99579652
   0.12206224  0.50036850  0.00420346
  -0.00000000  0.50000000  0.50000000
   0.65677052  0.49706163  0.46252433
   0.34322951  0.50293837  0.53747565
   0.37793776 -0.00036850  0.99579652
   0.62206224  0.00036850  0.00420346
  -0.00000000 -0.00000000  0.00000000
   0.25786049  0.00216278  0.23939279
   0.74213948 -0.00216278  0.76060719
   0.10810925 -0.00043331  0.77104372
   0.89189076  0.00043331  0.22895625
   0.50000000  0.50000000  0.00000000
   0.75786052  0.50216278  0.23939279
   0.24213951  0.49783722  0.76060719
   0.60810924  0.49956669  0.77104372
   0.39189076  0.50043331  0.22895625
Direct configuration=    14
   0.50000000 -0.00000000  0.50000000
   0.15678158 -0.00292493  0.46252237
   0.84321841  0.00292493  0.53747760
   0.87793390  0.49962604  0.99580550
   0.12206609  0.50037396  0.00419448
  -0.00000000  0.50000000  0.50000000
   0.65678159  0.49707507  0.46252237
   0.34321844  0.50292493  0.53747760
   0.37793390 -0.00037396  0.99580550
   0.62206610  0.00037396  0.00419448
  -0.00000000 -0.00000000  0.00000000
   0.25786845  0.00214252  0.23939699
   0.74213152 -0.00214252  0.76060299
   0.10809833 -0.00043397  0.77102666
   0.89190168  0.00043397  0.22897331
   0.50000000  0.50000000  0.00000000
   0.75786848  0.50214252  0.23939699
   0.24213155  0.49785748  0.76060299
   0.60809832  0.49956603  0.77102666
   0.39190168  0.50043397  0.22897331
Direct configuration=    15
   0.50000000 -0.00000000  0.50000000
   0.15678386 -0.00292215  0.46252197
   0.84321612  0.00292215  0.53747800
   0.87793311  0.49962491  0.99580736
   0.12206688  0.50037509  0.00419262
  -0.00000000  0.50000000  0.50000000
   0.65678388  0.49707785  0.46252197
   0.34321615  0.50292215  0.53747800
   0.37793311 -0.00037509  0.99580736
   0.62206689  0.00037509  0.00419262
  -0.00000000 -0.00000000  0.00000000
   0.25787009  0.00213833  0.23939786
   0.74212988 -0.00213833  0.76060213
   0.10809607 -0.00043411  0.77102313
   0.89190394  0.00043411  0.22897684
   0.50000000  0.50000000  0.00000000
   0.75787012  0.50213833  0.23939786
   0.24212991  0.49786167  0.76060213
   0.60809606  0.49956589  0.77102313
   0.39190394  0.50043411  0.22897684
Direct configuration=    16
   0.50000000 -0.00000000  0.50000000
   0.15678258 -0.00292371  0.46252220
   0.84321741  0.00292371  0.53747777
   0.87793356  0.49962555  0.99580631
   0.12206644  0.50037445  0.00419366
  -0.00000000  0.50000000  0.50000000
   0.65678259  0.49707629  0.46252220
   0.34321744  0.50292371  0.53747777
   0.37793356 -0.00037445  0.99580631
   0.62206644  0.00037445  0.00419366
  -0.00000000 -0.00000000  0.00000000
   0.25786917  0.00214068  0.23939737
   0.74213080 -0.00214068  0.76060261
   0.10809734 -0.00043403  0.77102512
   0.89190267  0.00043403  0.22897485
   0.50000000  0.50000000  0.00000000
   0.75786920  0.50214068  0.23939737
   0.24213083  0.49785932  0.76060261
   0.60809733  0.49956597  0.77102512
   0.39190267  0.50043403  0.22897485
Direct configuration=    17
   0.50000000 -0.00000000  0.50000000
   0.15678336 -0.00292276  0.46252206
   0.84321663  0.00292276  0.53747791
   0.87793328  0.49962516  0.99580695
   0.12206671  0.50037484  0.00419303
  -0.00000000  0.50000000  0.50000000
   0.65678337  0.49707724  0.46252206
   0.34321666  0.50292276  0.53747791
   0.37793328 -0.00037484  0.99580695
   0.62206672  0.00037484  0.00419303
  -0.00000000 -0.00000000  0.00000000
   0.25786973  0.00213925  0.23939767
   0.74213024 -0.00213925  0.76060232
   0.10809657 -0.00043408  0.77102391
   0.89190344  0.00043408  0.22897606
   0.50000000  0.50000000  0.00000000
   0.75786976  0.50213925  0.23939767
   0.24213027  0.49786075  0.76060232
   0.60809656  0.49956592  0.77102391
   0.39190344  0.50043408  0.22897606
Direct configuration=    18
   0.50000000 -0.00000000  0.50000000
   0.15678297 -0.00292324  0.46252213
   0.84321702  0.00292324  0.53747784
   0.87793342  0.49962535  0.99580663
   0.12206657  0.50037465  0.00419335
  -0.00000000  0.50000000  0.50000000
   0.65678298  0.49707676  0.46252213
   0.34321705  0.50292324  0.53747784
   0.37793342 -0.00037465  0.99580663
   0.62206658  0.00037465  0.00419335
  -0.00000000 -0.00000000  0.00000000
   0.25786945  0.00213997  0.23939752
   0.74213052 -0.00213997  0.76060247
   0.10809696 -0.00043405  0.77102451
   0.89190306  0.00043405  0.22897546
   0.50000000  0.50000000  0.00000000
   0.75786948  0.50213997  0.23939752
   0.24213055  0.49786003  0.76060247
   0.60809694  0.49956595  0.77102451
   0.39190306  0.50043405  0.22897546
Direct configuration=    19
   0.50000000 -0.00000000  0.50000000
   0.15678323 -0.00292292  0.46252208
   0.84321675  0.00292292  0.53747789
   0.87793333  0.49962522  0.99580684
   0.12206666  0.50037478  0.00419313
  -0.00000000  0.50000000  0.50000000
   0.65678325  0.49707708  0.46252208
   0.34321678  0.50292292  0.53747789
   0.37793333 -0.00037478  0.99580684
   0.62206667  0.00037478  0.00419313
  -0.00000000 -0.00000000  0.00000000
   0.25786964  0.00213949  0.23939762
   0.74213033 -0.00213949  0.76060237
   0.10809670 -0.00043407  0.77102411
   0.89190332  0.00043407  0.22897586
   0.50000000  0.50000000  0.00000000
   0.75786967  0.50213949  0.23939762
   0.24213036  0.49786051  0.76060237
   0.60809668  0.49956593  0.77102411
   0.39190332  0.50043407  0.22897586
Direct configuration=    20
   0.50000000 -0.00000000  0.50000000
   0.15678310 -0.00292308  0.46252210
   0.84321689  0.00292308  0.53747787
   0.87793337  0.49962529  0.99580674
   0.12206662  0.50037471  0.00419324
  -0.00000000  0.50000000  0.50000000
   0.65678311  0.49707692  0.46252210
   0.34321692  0.50292308  0.53747787
   0.37793337 -0.00037471  0.99580674
   0.62206663  0.00037471  0.00419324
  -0.00000000 -0.00000000  0.00000000
   0.25786954  0.00213973  0.23939757
   0.74213043 -0.00213973  0.76060242
   0.10809683 -0.00043406  0.77102431
   0.89190319  0.00043406  0.22897566
   0.50000000  0.50000000  0.00000000
   0.75786957  0.50213973  0.23939757
   0.24213046  0.49786027  0.76060242
   0.60809681  0.49956594  0.77102431
   0.39190319  0.50043406  0.22897566
Direct configuration=    21
   0.50000000 -0.00000000  0.50000000
   0.15678317 -0.00292299  0.46252209
   0.84321682  0.00292299  0.53747788
   0.87793335  0.49962525  0.99580679
   0.12206664  0.50037475  0.00419318
  -0.00000000  0.50000000  0.50000000
   0.65678318  0.49707701  0.46252209
   0.34321685  0.50292299  0.53747788
   0.37793335 -0.00037475  0.99580679
   0.62206665  0.00037475  0.00419318
  -0.00000000 -0.00000000  0.00000000
   0.25786959  0.00213960  0.23939759
   0.74213038 -0.00213960  0.76060239
   0.10809676 -0.00043406  0.77102421
   0.89190326  0.00043406  0.22897576
   0.50000000  0.50000000  0.00000000
   0.75786962  0.50213960  0.23939759
   0.24213041  0.49786040  0.76060239
   0.60809674  0.49956594  0.77102421
   0.39190326  0.50043406  0.22897576
Direct configuration=    22
   0.50000000 -0.00000000  0.50000000
   0.15678810 -0.00290834  0.46253215
   0.84321188  0.00290834  0.53746782
   0.87793593  0.49965374  0.99581288
   0.12206406  0.50034626  0.00418709
  -0.00000000  0.50000000  0.50000000
   0.65678812  0.49709166  0.46253215
   0.34321191  0.50290834  0.53746782
   0.37793593 -0.00034626  0.99581288
   0.62206407  0.00034626  0.00418709
  -0.00000000 -0.00000000  0.00000000
   0.25787110  0.00211293  0.23938033
   0.74212887 -0.00211293  0.76061966
   0.10808515 -0.00041711  0.77100086
   0.89191486  0.00041711  0.22899911
   0.50000000  0.50000000  0.00000000
   0.75787113  0.50211293  0.23938033
   0.24212890  0.49788707  0.76061966
   0.60808514  0.49958289  0.77100086
   0.39191486  0.50041711  0.22899911
