       N       E                     dE             d eps       ncg     rms          rms(c)
DAV:   1     0.921825374306E+03    0.92183E+03   -0.53980E+04 49056   0.174E+03
DAV:   2    -0.583544820889E+00   -0.92241E+03   -0.89254E+03 49056   0.397E+02
DAV:   3    -0.919506631529E+02   -0.91367E+02   -0.86723E+02 51464   0.147E+02
DAV:   4    -0.954246105029E+02   -0.34739E+01   -0.34119E+01 57584   0.277E+01
DAV:   5    -0.955161147716E+02   -0.91504E-01   -0.91284E-01 59344   0.391E+00    0.339E+01
RMM:   6    -0.103656773979E+03   -0.81407E+01   -0.42565E+02 49128   0.123E+02    0.253E+01
RMM:   7    -0.789697053343E+02    0.24687E+02   -0.91598E+01 49056   0.614E+01    0.291E+00
RMM:   8    -0.790101767194E+02   -0.40471E-01   -0.95305E+00 49056   0.159E+01    0.460E+00
RMM:   9    -0.785833163586E+02    0.42686E+00   -0.96978E-01 49056   0.623E+00    0.571E-01
RMM:  10    -0.785770686776E+02    0.62477E-02   -0.30922E-02 49062   0.726E-01    0.328E-01
RMM:  11    -0.785743449473E+02    0.27237E-02   -0.20773E-02 49056   0.619E-01    0.785E-02
RMM:  12    -0.785742548246E+02    0.90123E-04   -0.49004E-04 49063   0.916E-02    0.506E-02
RMM:  13    -0.785742294622E+02    0.25362E-04   -0.20730E-04 49057   0.798E-02    0.208E-02
RMM:  14    -0.785742188766E+02    0.10586E-04   -0.27739E-05 30016   0.323E-02    0.559E-03
RMM:  15    -0.785742196385E+02   -0.76190E-06   -0.58418E-06 27607   0.139E-02
   1 F= -.78574220E+02 E0= -.78570133E+02  d E =-.785742E+02
       N       E                     dE             d eps       ncg     rms          rms(c)
DAV:   1    -0.785746711732E+02   -0.45230E-03   -0.32613E-02 52636   0.660E-01    0.167E-02
RMM:   2    -0.785746799408E+02   -0.87677E-05   -0.14425E-04 49050   0.754E-02    0.179E-02
RMM:   3    -0.785746705789E+02    0.93619E-05   -0.46820E-05 38654   0.373E-02    0.487E-03
RMM:   4    -0.785746702974E+02    0.28153E-06   -0.37137E-06 25891   0.134E-02
   2 F= -.78574670E+02 E0= -.78570586E+02  d E =-.450659E-03
       N       E                     dE             d eps       ncg     rms          rms(c)
DAV:   1    -0.785755143996E+02   -0.84382E-03   -0.29365E-01 50492   0.198E+00    0.501E-02
RMM:   2    -0.785755048856E+02    0.95140E-05   -0.89094E-04 49056   0.191E-01    0.134E-02
RMM:   3    -0.785755032102E+02    0.16753E-05   -0.51531E-05 38279   0.379E-02    0.117E-03
RMM:   4    -0.785755038927E+02   -0.68249E-06   -0.64149E-06 26950   0.143E-02
   3 F= -.78575504E+02 E0= -.78571423E+02  d E =-.128425E-02
       N       E                     dE             d eps       ncg     rms          rms(c)
DAV:   1    -0.785748613506E+02    0.64186E-03   -0.11749E+00 49288   0.396E+00    0.991E-02
RMM:   2    -0.785748144613E+02    0.46889E-04   -0.35415E-03 49056   0.379E-01    0.625E-03
RMM:   3    -0.785748281368E+02   -0.13676E-04   -0.15892E-04 49090   0.557E-02    0.390E-03
RMM:   4    -0.785748287212E+02   -0.58439E-06   -0.12084E-05 29286   0.185E-02
   4 F= -.78574829E+02 E0= -.78570753E+02  d E =-.609083E-03
       N       E                     dE             d eps       ncg     rms          rms(c)
DAV:   1    -0.785756431798E+02   -0.81504E-03   -0.61535E-01 49196   0.286E+00    0.732E-02
RMM:   2    -0.785756238875E+02    0.19292E-04   -0.19468E-03 49056   0.283E-01    0.103E-02
RMM:   3    -0.785756279240E+02   -0.40365E-05   -0.77775E-05 42663   0.424E-02    0.268E-03
RMM:   4    -0.785756285957E+02   -0.67164E-06   -0.72368E-06 27567   0.156E-02
   5 F= -.78575629E+02 E0= -.78571550E+02  d E =-.140896E-02
       N       E                     dE             d eps       ncg     rms          rms(c)
DAV:   1    -0.785758998279E+02   -0.27190E-03   -0.45135E-02 49984   0.788E-01    0.191E-02
RMM:   2    -0.785760020826E+02   -0.10225E-03   -0.59874E-04 49056   0.144E-01    0.642E-02
RMM:   3    -0.785758982986E+02    0.10378E-03   -0.38551E-04 49056   0.113E-01    0.403E-03
RMM:   4    -0.785759003608E+02   -0.20621E-05   -0.30574E-05 30085   0.246E-02
   6 F= -.78575900E+02 E0= -.78571825E+02  d E =-.271765E-03
       N       E                     dE             d eps       ncg     rms          rms(c)
DAV:   1    -0.785761371265E+02   -0.23883E-03   -0.19249E-01 49188   0.163E+00    0.391E-02
RMM:   2    -0.785761312116E+02    0.59150E-05   -0.68912E-04 49056   0.167E-01    0.619E-03
RMM:   3    -0.785761327969E+02   -0.15853E-05   -0.29675E-05 31673   0.261E-02    0.179E-03
RMM:   4    -0.785761335196E+02   -0.72278E-06   -0.56007E-06 26611   0.145E-02
   7 F= -.78576134E+02 E0= -.78572065E+02  d E =-.504924E-03
       N       E                     dE             d eps       ncg     rms          rms(c)
DAV:   1    -0.785762537978E+02   -0.12100E-03   -0.60369E-02 49904   0.900E-01    0.209E-02
RMM:   2    -0.785762651589E+02   -0.11361E-04   -0.17523E-04 49030   0.768E-02    0.216E-02
RMM:   3    -0.785762684339E+02   -0.32750E-05   -0.53083E-05 42560   0.406E-02    0.303E-02
RMM:   4    -0.785762468267E+02    0.21607E-04   -0.80816E-05 43215   0.545E-02    0.276E-03
RMM:   5    -0.785762470767E+02   -0.25007E-06   -0.28489E-06 25314   0.684E-03
   8 F= -.78576247E+02 E0= -.78572184E+02  d E =-.113557E-03
       N       E                     dE             d eps       ncg     rms          rms(c)
DAV:   1    -0.785763074559E+02   -0.60629E-04   -0.10678E-01 49204   0.120E+00    0.278E-02
RMM:   2    -0.785762955464E+02    0.11910E-04   -0.21567E-04 49054   0.964E-02    0.244E-03
RMM:   3    -0.785762960170E+02   -0.47058E-06   -0.67978E-06 26449   0.129E-02    0.139E-03
RMM:   4    -0.785762961917E+02   -0.17470E-06   -0.11002E-06 24364   0.514E-03
   9 F= -.78576296E+02 E0= -.78572240E+02  d E =-.162672E-03
       N       E                     dE             d eps       ncg     rms          rms(c)
DAV:   1    -0.785763324065E+02   -0.36389E-04   -0.22710E-02 49800   0.553E-01    0.132E-02
RMM:   2    -0.785763350822E+02   -0.26757E-05   -0.70288E-05 48056   0.550E-02    0.145E-02
RMM:   3    -0.785763342573E+02    0.82488E-06   -0.68637E-06 25600   0.132E-02    0.131E-02
RMM:   4    -0.785763302467E+02    0.40106E-05   -0.15325E-05 25239   0.246E-02
  10 F= -.78576330E+02 E0= -.78572276E+02  d E =-.340550E-04
       N       E                     dE             d eps       ncg     rms          rms(c)
DAV:   1    -0.785763396265E+02   -0.53692E-05   -0.12965E-02 49720   0.418E-01    0.999E-03
RMM:   2    -0.785763383901E+02    0.12363E-05   -0.25643E-05 27753   0.351E-02    0.128E-03
RMM:   3    -0.785763387119E+02   -0.32171E-06   -0.33176E-06 25235   0.102E-02    0.142E-03
RMM:   4    -0.785763387823E+02   -0.70448E-07   -0.85267E-07 25011   0.623E-03
  11 F= -.78576339E+02 E0= -.78572285E+02  d E =-.425906E-04
       N       E                     dE             d eps       ncg     rms          rms(c)
DAV:   1    -0.785763442266E+02   -0.55147E-05   -0.36781E-03 50356   0.224E-01    0.529E-03
RMM:   2    -0.785763446103E+02   -0.38377E-06   -0.11303E-05 25360   0.236E-02    0.403E-03
RMM:   3    -0.785763451752E+02   -0.56488E-06   -0.46679E-06 24815   0.123E-02    0.726E-03
RMM:   4    -0.785763445285E+02    0.64673E-06   -0.19932E-06 24721   0.102E-02
  12 F= -.78576345E+02 E0= -.78572291E+02  d E =-.574619E-05
