AlCu                                    
           1
    12.119773    0.121198    0.008568
     0.041047    4.186826    0.000000
    -3.973711   -0.039737    5.684858
   Al   Cu
  10  10
Direct configuration=     1
   0.50000000  0.00000000  0.50000000
   0.15587366  0.00000000  0.46137374
   0.84412632  0.00000000  0.53862623
   0.87805559  0.50000000  0.99541334
   0.12194440  0.50000000  0.00458663
   0.00000000  0.50000000  0.50000000
   0.65587368  0.50000000  0.46137374
   0.34412635  0.50000000  0.53862623
   0.37805559  0.00000000  0.99541334
   0.62194441  0.00000000  0.00458663
   0.00000000  0.00000000  0.00000000
   0.25805145  0.00000000  0.24172886
   0.74194852  0.00000000  0.75827112
   0.10866387  0.00000000  0.77167894
   0.89133614  0.00000000  0.22832103
   0.50000000  0.50000000  0.00000000
   0.75805148  0.50000000  0.24172886
   0.24194855  0.50000000  0.75827112
   0.60866386  0.50000000  0.77167894
   0.39133614  0.50000000  0.22832103
Direct configuration=     2
   0.50000000  0.00000000  0.50000000
   0.15595431 -0.00004283  0.46160081
   0.84404568  0.00004283  0.53839917
   0.87805269  0.50013529  0.99539138
   0.12194731  0.49986471  0.00460860
   0.00000000  0.50000000  0.50000000
   0.65595432  0.49995717  0.46160081
   0.34404571  0.50004283  0.53839917
   0.37805269  0.00013529  0.99539138
   0.62194731 -0.00013529  0.00460860
   0.00000000  0.00000000  0.00000000
   0.25799963  0.00000543  0.24151976
   0.74200034 -0.00000543  0.75848022
   0.10865012  0.00001565  0.77163033
   0.89134990 -0.00001565  0.22836964
   0.50000000  0.50000000  0.00000000
   0.75799966  0.50000543  0.24151976
   0.24200037  0.49999457  0.75848022
   0.60865010  0.50001565  0.77163033
   0.39134990  0.49998435  0.22836964
Direct configuration=     3
   0.50000000  0.00000000  0.50000000
   0.15619626 -0.00017131  0.46228201
   0.84380373  0.00017131  0.53771796
   0.87804397  0.50054114  0.99532548
   0.12195603  0.49945886  0.00467450
   0.00000000  0.50000000  0.50000000
   0.65619627  0.49982869  0.46228201
   0.34380376  0.50017131  0.53771796
   0.37804397  0.00054114  0.99532548
   0.62195603 -0.00054114  0.00467450
   0.00000000  0.00000000  0.00000000
   0.25784416  0.00002171  0.24089246
   0.74215581 -0.00002171  0.75910753
   0.10860886  0.00006259  0.77148451
   0.89139115 -0.00006259  0.22851546
   0.50000000  0.50000000  0.00000000
   0.75784419  0.50002171  0.24089246
   0.24215584  0.49997829  0.75910753
   0.60860885  0.50006259  0.77148451
   0.39139115  0.49993741  0.22851546
Direct configuration=     4
   0.50000000  0.00000000  0.50000000
   0.15668015 -0.00042829  0.46364441
   0.84331983  0.00042829  0.53635556
   0.87802653  0.50135286  0.99519367
   0.12197346  0.49864714  0.00480630
   0.00000000  0.50000000  0.50000000
   0.65668017  0.49957171  0.46364441
   0.34331986  0.50042829  0.53635556
   0.37802653  0.00135286  0.99519367
   0.62197347 -0.00135286  0.00480630
   0.00000000  0.00000000  0.00000000
   0.25753321  0.00005429  0.23963785
   0.74246676 -0.00005429  0.76036213
   0.10852635  0.00015649  0.77119287
   0.89147367 -0.00015649  0.22880710
   0.50000000  0.50000000  0.00000000
   0.75753324  0.50005429  0.23963785
   0.24246679  0.49994571  0.76036213
   0.60852633  0.50015649  0.77119287
   0.39147367  0.49984351  0.22880710
Direct configuration=     5
   0.50000000  0.00000000  0.50000000
   0.15632988 -0.00024227  0.46265822
   0.84367011  0.00024227  0.53734175
   0.87803915  0.50076529  0.99528908
   0.12196084  0.49923471  0.00471090
   0.00000000  0.50000000  0.50000000
   0.65632989  0.49975773  0.46265822
   0.34367014  0.50024227  0.53734175
   0.37803915  0.00076529  0.99528908
   0.62196085 -0.00076529  0.00471090
   0.00000000  0.00000000  0.00000000
   0.25775829  0.00003071  0.24054602
   0.74224168 -0.00003071  0.75945397
   0.10858608  0.00008852  0.77140398
   0.89141394 -0.00008852  0.22859599
   0.50000000  0.50000000  0.00000000
   0.75775832  0.50003071  0.24054602
   0.24224171  0.49996929  0.75945397
   0.60858606  0.50008852  0.77140398
   0.39141394  0.49991148  0.22859599
Direct configuration=     6
   0.50000000  0.00000000  0.50000000
   0.15651430 -0.00030673  0.46281318
   0.84348568  0.00030673  0.53718680
   0.87809908  0.50074339  0.99533724
   0.12190091  0.49925661  0.00466274
   0.00000000  0.50000000  0.50000000
   0.65651432  0.49969327  0.46281318
   0.34348571  0.50030673  0.53718680
   0.37809908  0.00074339  0.99533724
   0.62190092 -0.00074339  0.00466274
   0.00000000  0.00000000  0.00000000
   0.25769849 -0.00005868  0.24039646
   0.74230148  0.00005868  0.75960352
   0.10847985  0.00001491  0.77132012
   0.89152017 -0.00001491  0.22867985
   0.50000000  0.50000000  0.00000000
   0.75769852  0.49994132  0.24039646
   0.24230151  0.50005868  0.75960352
   0.60847983  0.50001491  0.77132012
   0.39152017  0.49998509  0.22867985
Direct configuration=     7
   0.50000000  0.00000000  0.50000000
   0.15689501 -0.00043978  0.46313306
   0.84310497  0.00043978  0.53686691
   0.87822281  0.50069818  0.99543665
   0.12177719  0.49930182  0.00456333
   0.00000000  0.50000000  0.50000000
   0.65689503  0.49956022  0.46313306
   0.34310500  0.50043978  0.53686691
   0.37822281  0.00069818  0.99543665
   0.62177719 -0.00069818  0.00456333
   0.00000000  0.00000000  0.00000000
   0.25757505 -0.00024320  0.24008773
   0.74242492  0.00024320  0.75991225
   0.10826057 -0.00013704  0.77114700
   0.89173945  0.00013704  0.22885297
   0.50000000  0.50000000  0.00000000
   0.75757508  0.49975680  0.24008773
   0.24242495  0.50024320  0.75991225
   0.60826055  0.49986296  0.77114700
   0.39173945  0.50013704  0.22885297
Direct configuration=     8
   0.50000000  0.00000000  0.50000000
   0.15695313 -0.00038216  0.46322682
   0.84304685  0.00038216  0.53677315
   0.87826161  0.50068535  0.99554383
   0.12173839  0.49931465  0.00445615
   0.00000000  0.50000000  0.50000000
   0.65695315  0.49961784  0.46322682
   0.34304688  0.50038216  0.53677315
   0.37826161  0.00068535  0.99554383
   0.62173839 -0.00068535  0.00445615
   0.00000000  0.00000000  0.00000000
   0.25763817 -0.00026631  0.24008987
   0.74236180  0.00026631  0.75991011
   0.10811699 -0.00015930  0.77092924
   0.89188303  0.00015930  0.22907073
   0.50000000  0.50000000  0.00000000
   0.75763820  0.49973369  0.24008987
   0.24236183  0.50026631  0.75991011
   0.60811697  0.49984070  0.77092924
   0.39188303  0.50015930  0.22907073
Direct configuration=     9
   0.50000000  0.00000000  0.50000000
   0.15703044 -0.00030551  0.46335154
   0.84296954  0.00030551  0.53664843
   0.87831322  0.50066828  0.99568639
   0.12168677  0.49933172  0.00431359
   0.00000000  0.50000000  0.50000000
   0.65703046  0.49969449  0.46335154
   0.34296957  0.50030551  0.53664843
   0.37831322  0.00066828  0.99568639
   0.62168678 -0.00066828  0.00431359
   0.00000000  0.00000000  0.00000000
   0.25772211 -0.00029706  0.24009272
   0.74227786  0.00029706  0.75990726
   0.10792601 -0.00018890  0.77063959
   0.89207400  0.00018890  0.22936038
   0.50000000  0.50000000  0.00000000
   0.75772214  0.49970294  0.24009272
   0.24227789  0.50029706  0.75990726
   0.60792600  0.49981110  0.77063959
   0.39207400  0.50018890  0.22936038
Direct configuration=    10
   0.50000000  0.00000000  0.50000000
   0.15705411 -0.00021467  0.46332742
   0.84294588  0.00021467  0.53667255
   0.87827946  0.50071360  0.99572973
   0.12172053  0.49928640  0.00427024
   0.00000000  0.50000000  0.50000000
   0.65705412  0.49978533  0.46332742
   0.34294591  0.50021467  0.53667255
   0.37827946  0.00071360  0.99572973
   0.62172054 -0.00071360  0.00427024
   0.00000000  0.00000000  0.00000000
   0.25768584 -0.00026281  0.24001334
   0.74231413  0.00026281  0.75998665
   0.10783864 -0.00015479  0.77051270
   0.89216137  0.00015479  0.22948727
   0.50000000  0.50000000  0.00000000
   0.75768587  0.49973719  0.24001334
   0.24231416  0.50026281  0.75998665
   0.60783863  0.49984521  0.77051270
   0.39216137  0.50015479  0.22948727
Direct configuration=    11
   0.50000000  0.00000000  0.50000000
   0.15707198 -0.00014605  0.46330919
   0.84292800  0.00014605  0.53669078
   0.87825396  0.50074783  0.99576247
   0.12174604  0.49925217  0.00423750
   0.00000000  0.50000000  0.50000000
   0.65707200  0.49985395  0.46330919
   0.34292803  0.50014605  0.53669078
   0.37825396  0.00074783  0.99576247
   0.62174604 -0.00074783  0.00423750
   0.00000000  0.00000000  0.00000000
   0.25765845 -0.00023694  0.23995337
   0.74234152  0.00023694  0.76004662
   0.10777265 -0.00012902  0.77041684
   0.89222737  0.00012902  0.22958313
   0.50000000  0.50000000  0.00000000
   0.75765848  0.49976306  0.23995337
   0.24234155  0.50023694  0.76004662
   0.60777263  0.49987098  0.77041684
   0.39222737  0.50012902  0.22958313
Direct configuration=    12
   0.50000000  0.00000000  0.50000000
   0.15707318 -0.00013539  0.46330330
   0.84292680  0.00013539  0.53669667
   0.87822774  0.50069371  0.99574411
   0.12177225  0.49930629  0.00425587
   0.00000000  0.50000000  0.50000000
   0.65707320  0.49986461  0.46330330
   0.34292683  0.50013539  0.53669667
   0.37822774  0.00069371  0.99574411
   0.62177226 -0.00069371  0.00425587
   0.00000000  0.00000000  0.00000000
   0.25764330 -0.00027504  0.23991283
   0.74235667  0.00027504  0.76008715
   0.10777256 -0.00015043  0.77037432
   0.89222745  0.00015043  0.22962565
   0.50000000  0.50000000  0.00000000
   0.75764333  0.49972496  0.23991283
   0.24235670  0.50027504  0.76008715
   0.60777255  0.49984957  0.77037432
   0.39222745  0.50015043  0.22962565
