       N       E                     dE             d eps       ncg     rms          rms(c)
DAV:   1     0.268553883830E+02    0.26855E+02   -0.85541E+03  1560   0.802E+02
DAV:   2    -0.220383114697E+02   -0.48894E+02   -0.45113E+02  1912   0.883E+01
DAV:   3    -0.243007812774E+02   -0.22625E+01   -0.21544E+01  2008   0.167E+01
DAV:   4    -0.243571035396E+02   -0.56322E-01   -0.56161E-01  2066   0.310E+00
DAV:   5    -0.243587405336E+02   -0.16370E-02   -0.16368E-02  2038   0.516E-01    0.275E+00
RMM:   6    -0.243580913358E+02    0.64920E-03   -0.81085E-03  1560   0.618E-01    0.176E+00
RMM:   7    -0.243631308133E+02   -0.50395E-02   -0.29840E-02  1560   0.130E+00    0.117E-01
RMM:   8    -0.243629818926E+02    0.14892E-03   -0.26826E-04  1561   0.104E-01    0.372E-02
RMM:   9    -0.243629946254E+02   -0.12733E-04   -0.46758E-05  1619   0.411E-02    0.211E-03
RMM:  10    -0.243629984689E+02   -0.38435E-05   -0.62003E-06  1489   0.118E-02    0.849E-04
RMM:  11    -0.243629997180E+02   -0.12490E-05   -0.48676E-07   951   0.406E-03    0.204E-04
RMM:  12    -0.243630000956E+02   -0.37767E-06   -0.20514E-07   763   0.261E-03
   1 F= -.24363000E+02 E0= -.24355274E+02  d E =-.243630E+02
