 vasp.5.3.5 31Mar14 (build Nov 12 2015 11:19:23) complex                         
 executed on           CrayXC_GCC date 2016.07.03  13:54:27
 running on   96 total cores
 distrk:  each k-point on   24 cores,    4 groups
 distr:  one band on NCORES_PER_BAND=  12 cores,    2 groups


--------------------------------------------------------------------------------------------------------


 INCAR:
 POTCAR:   PAW_GGA Mg 05Jan2001                   

 ----------------------------------------------------------------------------- 
|                                                                             |
|           W    W    AA    RRRRR   N    N  II  N    N   GGGG   !!!           |
|           W    W   A  A   R    R  NN   N  II  NN   N  G    G  !!!           |
|           W    W  A    A  R    R  N N  N  II  N N  N  G       !!!           |
|           W WW W  AAAAAA  RRRRR   N  N N  II  N  N N  G  GGG   !            |
|           WW  WW  A    A  R   R   N   NN  II  N   NN  G    G                |
|           W    W  A    A  R    R  N    N  II  N    N   GGGG   !!!           |
|                                                                             |
|      You have enabled k-point parallelism (KPAR>1).                         |
|      This developmental code was originally  written by Paul Kent at ORNL,  |
|      and carefully double checked in Vienna.                                |
|      GW as well as linear response parallelism added by Martijn Marsman     |
|      and Georg Kresse.                                                      |
|      Carefully verify results versus KPAR=1.                                |
|      Report problems to Paul Kent and Vienna.                               |
|                                                                             |
 ----------------------------------------------------------------------------- 

 POTCAR:   PAW_GGA Mg 05Jan2001                   
   VRHFIN =Mg: s2p0                                                             
   LEXCH  = 91                                                                  
   EATOM  =    23.0823 eV,    1.6965 Ry                                         
                                                                                
   TITEL  = PAW_GGA Mg 05Jan2001                                                
   LULTRA =        F    use ultrasoft PP ?                                      
   IUNSCR =        1    unscreen: 0-lin 1-nonlin 2-no                           
   RPACOR =    2.000    partial core radius                                     
   POMASS =   24.305; ZVAL   =    2.000    mass and valenz                      
   RCORE  =    2.000    outmost cutoff radius                                   
   RWIGS  =    2.880; RWIGS  =    1.524    wigner-seitz radius (au A)           
   ENMAX  =  210.083; ENMIN  =  157.562 eV                                      
   ICORE  =        2    local potential                                         
   LCOR   =        T    correct aug charges                                     
   LPAW   =        T    paw PP                                                  
   EAUG   =  274.554                                                            
   DEXC   =    -.096                                                            
   RMAX   =    3.181    core radius for proj-oper                               
   RAUG   =    1.300    factor for augmentation sphere                          
   RDEP   =    2.025    core radius for depl-charge                             
   QCUT   =   -3.929; QGAM   =    7.859    optimization parameters              
                                                                                
   Description                                                                  
     l     E      TYP  RCUT    TYP  RCUT                                        
     0   .000     23  2.000                                                     
     0  2.000     23  2.000                                                     
     1   .000     23  2.000                                                     
     1  2.000     23  2.000                                                     
     2   .000     23  2.000                                                     
  local pseudopotential read in
  partial core-charges read in
  atomic valenz-charges read in
  non local Contribution for L=           0  read in
    real space projection operators read in
  non local Contribution for L=           0  read in
    real space projection operators read in
  non local Contribution for L=           1  read in
    real space projection operators read in
  non local Contribution for L=           1  read in
    real space projection operators read in
    PAW grid and wavefunctions read in

   number of l-projection  operators is LMAX  =           4
   number of lm-projection operators is LMMAX =           8

 PAW_GGA Mg 05Jan2001                   :
 energy of atom  1       EATOM=  -23.0823
 kinetic energy error for atom=    0.0001 (will be added to EATOM!!)


 POSCAR: Mg                                      
  positions in direct lattice
  velocities in cartesian coordinates
 exchange correlation table for  LEXCH =        7
   RHO(1)=    0.500       N(1)  =     2000
   RHO(2)=  100.500       N(2)  =     4000



--------------------------------------------------------------------------------------------------------


 ion  position               nearest neighbor table
   1  0.167  0.333  0.125-  13 3.17  14 3.17  11 3.17  12 3.17   9 3.17  10 3.17   5 3.20   5 3.20
                             7 3.20   7 3.20   3 3.20   3 3.20
   2  0.167  0.333  0.625-  13 3.17  14 3.17  11 3.17  12 3.17   9 3.17  10 3.17   6 3.20   6 3.20
                             8 3.20   8 3.20   4 3.20   4 3.20
   3  0.167  0.833  0.125-  15 3.17  16 3.17   9 3.17  10 3.17  11 3.17  12 3.17   7 3.20   7 3.20
                             5 3.20   5 3.20   1 3.20   1 3.20
   4  0.167  0.833  0.625-  15 3.17  16 3.17   9 3.17  10 3.17  11 3.17  12 3.17   8 3.20   8 3.20
                             6 3.20   6 3.20   2 3.20   2 3.20
   5  0.667  0.333  0.125-   9 3.17  10 3.17  15 3.17  16 3.17  13 3.17  14 3.17   1 3.20   1 3.20
                             3 3.20   3 3.20   7 3.20   7 3.20
   6  0.667  0.333  0.625-   9 3.17  10 3.17  15 3.17  16 3.17  13 3.17  14 3.17   2 3.20   2 3.20
                             4 3.20   4 3.20   8 3.20   8 3.20
   7  0.667  0.833  0.125-  11 3.17  12 3.17  13 3.17  14 3.17  15 3.17  16 3.17   3 3.20   3 3.20
                             1 3.20   1 3.20   5 3.20   5 3.20
   8  0.667  0.833  0.625-  11 3.17  12 3.17  13 3.17  14 3.17  15 3.17  16 3.17   4 3.20   4 3.20
                             2 3.20   2 3.20   6 3.20   6 3.20
   9  0.333  0.167  0.375-   5 3.17   6 3.17   3 3.17   4 3.17   1 3.17   2 3.17  13 3.20  13 3.20
                            15 3.20  15 3.20  11 3.20  11 3.20
  10  0.333  0.167  0.875-   5 3.17   6 3.17   3 3.17   4 3.17   1 3.17   2 3.17  14 3.20  14 3.20
                            16 3.20  16 3.20  12 3.20  12 3.20
  11  0.333  0.667  0.375-   7 3.17   8 3.17   1 3.17   2 3.17   3 3.17   4 3.17  15 3.20  15 3.20
                            13 3.20  13 3.20   9 3.20   9 3.20
  12  0.333  0.667  0.875-   7 3.17   8 3.17   1 3.17   2 3.17   3 3.17   4 3.17  16 3.20  16 3.20
                            14 3.20  14 3.20  10 3.20  10 3.20
  13  0.833  0.167  0.375-   1 3.17   2 3.17   7 3.17   8 3.17   5 3.17   6 3.17   9 3.20   9 3.20
                            11 3.20  11 3.20  15 3.20  15 3.20
  14  0.833  0.167  0.875-   1 3.17   2 3.17   7 3.17   8 3.17   5 3.17   6 3.17  10 3.20  10 3.20
                            12 3.20  12 3.20  16 3.20  16 3.20
  15  0.833  0.667  0.375-   3 3.17   4 3.17   5 3.17   6 3.17   7 3.17   8 3.17  11 3.20  11 3.20
                             9 3.20   9 3.20  13 3.20  13 3.20
  16  0.833  0.667  0.875-   3 3.17   4 3.17   5 3.17   6 3.17   7 3.17   8 3.17  12 3.20  12 3.20
                            10 3.20  10 3.20  14 3.20  14 3.20

  LATTYP: Found a hexagonal cell.
 ALAT       =     6.4069562771
 C/A-ratio  =     1.6073112492
  
  Lattice vectors:
  
 A1 = (   6.4069541107,  -0.0000000258,  -0.0000000000)
 A2 = (  -3.2034806952,   5.5485896495,   0.0000000000)
 A3 = (  -0.0000000000,   0.0000000000,  10.2979728976)


Analysis of symmetry for initial positions (statically):
=====================================================================
 Subroutine PRICEL returns following result:
 
  LATTYP: Found a hexagonal cell.
 ALAT       =     3.2034780905
 C/A-ratio  =     1.6073112734
  
  Lattice vectors:
  
 A1 = (   3.2034769593,  -0.0000000129,   0.0000000000)
 A2 = (  -1.6017403476,   2.7742948247,   0.0000000000)
 A3 = (   0.0000000000,   0.0000000000,   5.1489864488)
 
   8 primitive cells build up your supercell.
 

 Routine SETGRP: Setting up the symmetry group for a 
 hexagonal supercell.


 Subroutine GETGRP returns: Found 24 space group operations
 (whereof 12 operations were pure point group operations)
 out of a pool of 24 trial point group operations.


The static configuration has the point symmetry D_3d.
 The point group associated with its full space group is D_6h.


Analysis of symmetry for dynamics (positions and initial velocities):
=====================================================================
 Subroutine PRICEL returns following result:
 
  LATTYP: Found a hexagonal cell.
 ALAT       =     3.2034780905
 C/A-ratio  =     1.6073112734
  
  Lattice vectors:
  
 A1 = (   3.2034769593,  -0.0000000129,   0.0000000000)
 A2 = (  -1.6017403476,   2.7742948247,   0.0000000000)
 A3 = (   0.0000000000,   0.0000000000,   5.1489864488)
 
   8 primitive cells build up your supercell.
 

 Routine SETGRP: Setting up the symmetry group for a 
 hexagonal supercell.


 Subroutine GETGRP returns: Found 24 space group operations
 (whereof 12 operations were pure point group operations)
 out of a pool of 24 trial point group operations.


The dynamic configuration has the point symmetry D_3d.
 The point group associated with its full space group is D_6h.


 KPOINTS: Automatic                               

Automatic generation of k-mesh.
Space group operators:
 irot       det(A)        alpha          n_x          n_y          n_z        tau_x        tau_y        tau_z
    1     1.000000     0.000000     1.000000     0.000000     0.000000     0.000000     0.000000     0.000000
    2    -1.000000     0.000000     1.000000     0.000000     0.000000     0.000000     0.000000     0.000000
    3     1.000000   120.000000     0.000000     0.000000    -1.000000     0.000000     0.000000     0.000000
    4    -1.000000   120.000000     0.000000     0.000000    -1.000000     0.000000     0.000000     0.000000
    5     1.000000   120.000000     0.000000     0.000000     1.000000     0.000000     0.000000     0.000000
    6    -1.000000   120.000000     0.000000     0.000000     1.000000     0.000000     0.000000     0.000000
    7     1.000000   179.999999     1.000000     0.000001     0.000000     0.000000     0.000000     0.000000
    8    -1.000000   179.999999     1.000000     0.000001     0.000000     0.000000     0.000000     0.000000
    9     1.000000   179.999999     0.500000    -0.866025     0.000000     0.000000     0.000000     0.000000
   10    -1.000000   179.999999     0.500000    -0.866025     0.000000     0.000000     0.000000     0.000000
   11     1.000000   180.000000    -0.500000    -0.866025     0.000000     0.000000     0.000000     0.000000
   12    -1.000000   180.000000    -0.500000    -0.866025     0.000000     0.000000     0.000000     0.000000
   13     1.000000    60.000000     0.000000     0.000000    -1.000000     0.000000     0.000000     0.250000
   14    -1.000000    60.000000     0.000000     0.000000    -1.000000     0.000000     0.000000     0.250000
   15     1.000000   180.000000     0.000000     0.000000     1.000000     0.000000     0.000000     0.250000
   16    -1.000000   180.000000     0.000000     0.000000     1.000000     0.000000     0.000000     0.250000
   17     1.000000    60.000000     0.000000     0.000000     1.000000     0.000000     0.000000     0.250000
   18    -1.000000    60.000000     0.000000     0.000000     1.000000     0.000000     0.000000     0.250000
   19     1.000000   180.000000     0.866026    -0.499999     0.000000     0.000000     0.000000     0.250000
   20    -1.000000   180.000000     0.866026    -0.499999     0.000000     0.000000     0.000000     0.250000
   21     1.000000   180.000000    -0.000000    -1.000000     0.000000     0.000000     0.000000     0.250000
   22    -1.000000   180.000000    -0.000000    -1.000000     0.000000     0.000000     0.000000     0.250000
   23     1.000000   180.000000     0.866025     0.500000     0.000000     0.000000     0.000000     0.250000
   24    -1.000000   180.000000     0.866025     0.500000     0.000000     0.000000     0.000000     0.250000
 
 Subroutine IBZKPT returns following result:
 ===========================================
 
 Found     30 irreducible k-points:
 
 Following reciprocal coordinates:
            Coordinates               Weight
  0.000000  0.000000  0.000000      1.000000
  0.125000  0.000000  0.000000      6.000000
  0.250000  0.000000  0.000000      6.000000
  0.375000  0.000000  0.000000      6.000000
  0.500000  0.000000  0.000000      3.000000
  0.125000  0.125000  0.000000      6.000000
  0.250000  0.125000  0.000000     12.000000
  0.375000  0.125000  0.000000     12.000000
  0.250000  0.250000  0.000000      6.000000
  0.375000  0.250000  0.000000      6.000000
  0.000000  0.000000  0.250000      2.000000
  0.125000  0.000000  0.250000     12.000000
  0.250000  0.000000  0.250000     12.000000
  0.375000  0.000000  0.250000     12.000000
  0.500000  0.000000  0.250000      6.000000
  0.125000  0.125000  0.250000     12.000000
  0.250000  0.125000  0.250000     24.000000
  0.375000  0.125000  0.250000     24.000000
  0.250000  0.250000  0.250000     12.000000
  0.375000  0.250000  0.250000     12.000000
  0.000000  0.000000  0.500000      1.000000
  0.125000  0.000000  0.500000      6.000000
  0.250000  0.000000  0.500000      6.000000
  0.375000  0.000000  0.500000      6.000000
  0.500000  0.000000  0.500000      3.000000
  0.125000  0.125000  0.500000      6.000000
  0.250000  0.125000  0.500000     12.000000
  0.375000  0.125000  0.500000     12.000000
  0.250000  0.250000  0.500000      6.000000
  0.375000  0.250000  0.500000      6.000000
 
 Following cartesian coordinates:
            Coordinates               Weight
  0.000000  0.000000  0.000000      1.000000
  0.019510  0.011264  0.000000      6.000000
  0.039020  0.022528  0.000000      6.000000
  0.058530  0.033792  0.000000      6.000000
  0.078040  0.045057  0.000000      3.000000
  0.019510  0.033792  0.000000      6.000000
  0.039020  0.045057  0.000000     12.000000
  0.058530  0.056321  0.000000     12.000000
  0.039020  0.067585  0.000000      6.000000
  0.058530  0.078849  0.000000      6.000000
  0.000000  0.000000  0.024277      2.000000
  0.019510  0.011264  0.024277     12.000000
  0.039020  0.022528  0.024277     12.000000
  0.058530  0.033792  0.024277     12.000000
  0.078040  0.045057  0.024277      6.000000
  0.019510  0.033792  0.024277     12.000000
  0.039020  0.045057  0.024277     24.000000
  0.058530  0.056321  0.024277     24.000000
  0.039020  0.067585  0.024277     12.000000
  0.058530  0.078849  0.024277     12.000000
  0.000000  0.000000  0.048553      1.000000
  0.019510  0.011264  0.048553      6.000000
  0.039020  0.022528  0.048553      6.000000
  0.058530  0.033792  0.048553      6.000000
  0.078040  0.045057  0.048553      3.000000
  0.019510  0.033792  0.048553      6.000000
  0.039020  0.045057  0.048553     12.000000
  0.058530  0.056321  0.048553     12.000000
  0.039020  0.067585  0.048553      6.000000
  0.058530  0.078849  0.048553      6.000000
 


--------------------------------------------------------------------------------------------------------




 Dimension of arrays:
   k-points           NKPTS =     30   k-points in BZ     NKDIM =     30   number of bands    NBANDS=     26
   number of dos      NEDOS =    301   number of ions     NIONS =     16
   non local maximal  LDIM  =      4   non local SUM 2l+1 LMDIM =      8
   total plane-waves  NPLWV =  69984
   max r-space proj   IRMAX =      1   max aug-charges    IRDMAX=   8319
   dimension x,y,z NGX =    36 NGY =   36 NGZ =   54
   dimension x,y,z NGXF=    72 NGYF=   72 NGZF=  108
   support grid    NGXF=    72 NGYF=   72 NGZF=  108
   ions per type =              16
 NGX,Y,Z   is equivalent  to a cutoff of   9.34,  9.34,  8.72 a.u.
 NGXF,Y,Z  is equivalent  to a cutoff of  18.68, 18.68, 17.44 a.u.


 I would recommend the setting:
   dimension x,y,z NGX =    33 NGY =   33 NGZ =   53
 SYSTEM =  Mg                                      
 POSCAR =  Mg                                      

 Startparameter for this run:
   NWRITE =      2    write-flag & timer
   PREC   = n         normal or accurate (medium, high low for compatibility)
   ISTART =      0    job   : 0-new  1-cont  2-samecut
   ICHARG =      2    charge: 1-file 2-atom 10-const
   ISPIN  =      1    spin polarized calculation?
   LNONCOLLINEAR =      F non collinear calculations
   LSORBIT =      F    spin-orbit coupling
   INIWAV =      1    electr: 0-lowe 1-rand  2-diag
   LASPH  =      F    aspherical Exc in radial PAW
   METAGGA=      F    non-selfconsistent MetaGGA calc.

 Electronic Relaxation 1
   ENCUT  =  450.0 eV  33.07 Ry    5.75 a.u.  11.08 11.08 17.81*2*pi/ulx,y,z
   ENINI  =  450.0     initial cutoff
   ENAUG  =  274.6 eV  augmentation charge cutoff
   NELM   =     40;   NELMIN=  4; NELMDL= -5     # of ELM steps 
   EDIFF  = 0.1E-05   stopping-criterion for ELM
   LREAL  =      F    real-space projection
   NLSPLINE    = F    spline interpolate recip. space projectors
   LCOMPAT=      F    compatible to vasp.4.4
   GGA_COMPAT  = T    GGA compatible to vasp.4.4-vasp.4.6
   LMAXPAW     = -100 max onsite density
   LMAXMIX     =    2 max onsite mixed and CHGCAR
   VOSKOWN=      0    Vosko Wilk Nusair interpolation
   ROPT   =    0.00000
 Ionic relaxation
   EDIFFG = -.1E-03   stopping-criterion for IOM
   NSW    =    100    number of steps for IOM
   NBLOCK =      1;   KBLOCK =    100    inner block; outer block 
   IBRION =      2    ionic relax: 0-MD 1-quasi-New 2-CG
   NFREE  =      1    steps in history (QN), initial steepest desc. (CG)
   ISIF   =      2    stress and relaxation
   IWAVPR =     11    prediction:  0-non 1-charg 2-wave 3-comb
   ISYM   =      2    0-nonsym 1-usesym 2-fastsym
   LCORR  =      T    Harris-Foulkes like correction to forces

   POTIM  = 0.3000    time-step for ionic-motion
   TEIN   =    0.0    initial temperature
   TEBEG  =    0.0;   TEEND  =   0.0 temperature during run
   SMASS  =  -3.00    Nose mass-parameter (am)
   estimated Nose-frequenzy (Omega)   =  0.10E-29 period in steps =****** mass=  -0.938E-27a.u.
   SCALEE = 1.0000    scale energy and forces
   NPACO  =    256;   APACO  = 16.0  distance and # of slots for P.C.
   PSTRESS=    0.0 pullay stress

  Mass of Ions in am
   POMASS =  24.30
  Ionic Valenz
   ZVAL   =   2.00
  Atomic Wigner-Seitz radii
   RWIGS  =  -1.00
  virtual crystal weights 
   VCA    =   1.00
   NELECT =      32.0000    total number of electrons
   NUPDOWN=      -1.0000    fix difference up-down

 DOS related values:
   EMIN   =  10.00;   EMAX   =-10.00  energy-range for DOS
   EFERMI =   0.00
   ISMEAR =    -1;   SIGMA  =   0.03  broadening in eV -4-tet -1-fermi 0-gaus

 Electronic relaxation 2 (details)
   IALGO  =     68    algorithm
   LDIAG  =      T    sub-space diagonalisation (order eigenvalues)
   LSUBROT=      F    optimize rotation matrix (better conditioning)
   TURBO    =      0    0=normal 1=particle mesh
   IRESTART =      0    0=no restart 2=restart with 2 vectors
   NREBOOT  =      0    no. of reboots
   NMIN     =      0    reboot dimension
   EREF     =   0.00    reference energy to select bands
   IMIX   =      4    mixing-type and parameters
     AMIX     =   0.40;   BMIX     =  1.00
     AMIX_MAG =   1.60;   BMIX_MAG =  1.00
     AMIN     =   0.10
     WC   =   100.;   INIMIX=   1;  MIXPRE=   1;  MAXMIX=  40

 Intra band minimization:
   WEIMIN = 0.0010     energy-eigenvalue tresh-hold
   EBREAK =  0.96E-08  absolut break condition
   DEPER  =   0.30     relativ break condition  

   TIME   =   0.40     timestep for ELM

  volume/ion in A,a.u.               =      22.88       154.41
  Fermi-wavevector in a.u.,A,eV,Ry     =   0.726546  1.372972  7.182086  0.527868
  Thomas-Fermi vector in A             =   1.817546

 Write flags
   LWAVE  =      F    write WAVECAR
   LCHARG =      F    write CHGCAR
   LVTOT  =      F    write LOCPOT, total local potential
   LVHAR  =      F    write LOCPOT, Hartree potential only
   LELF   =      F    write electronic localiz. function (ELF)
   LORBIT =      0    0 simple, 1 ext, 2 COOP (PROOUT)


 Dipole corrections
   LMONO  =      F    monopole corrections only (constant potential shift)
   LDIPOL =      F    correct potential (dipole corrections)
   IDIPOL =      0    1-x, 2-y, 3-z, 4-all directions 
   EPSILON=  1.0000000 bulk dielectric constant

 Exchange correlation treatment:
   GGA     =    91    GGA type
   LEXCH   =     7    internal setting for exchange type
   VOSKOWN=      0    Vosko Wilk Nusair interpolation
   LHFCALC =     F    Hartree Fock is set to
   LHFONE  =     F    Hartree Fock one center treatment
   AEXX    =    0.0000 exact exchange contribution

 Linear response parameters
   LEPSILON=     F    determine dielectric tensor
   LRPA    =     F    only Hartree local field effects (RPA)
   LNABLA  =     F    use nabla operator in PAW spheres
   LVEL    =     F    velocity operator in full k-point grid
   LINTERFAST=   F  fast interpolation
   KINTER  =     0    interpolate to denser k-point grid
   CSHIFT  =0.1000    complex shift for real part using Kramers Kronig
   OMEGAMAX=  -1.0    maximum frequency
   DEG_THRESHOLD= 0.2000000E-02 threshold for treating states as degnerate
   RTIME   =    0.100 relaxation time in fs

 Orbital magnetization related:
   ORBITALMAG=     F  switch on orbital magnetization
   LCHIMAG   =     F  perturbation theory with respect to B field
   DQ        =  0.001000  dq finite difference perturbation B field



--------------------------------------------------------------------------------------------------------


 conjugate gradient relaxation of ions
 charge density and potential will be updated during run
 non-spin polarized calculation
 RMM-DIIS sequential band-by-band and
  variant of blocked Davidson during initial phase
 perform sub-space diagonalisation
    before iterative eigenvector-optimisation
 modified Broyden-mixing scheme, WC =      100.0
 initial mixing is a Kerker type mixing with AMIX =  0.4000 and BMIX =      1.0000
 Hartree-type preconditioning will be used
 using additional bands           10
 reciprocal scheme for non local part
 use partial core corrections
 calculate Harris-corrections to forces   (improved forces if not selfconsistent)
 use gradient corrections 
 use of overlap-Matrix (Vanderbilt PP)
 Fermi-smearing in eV        SIGMA  =   0.03


--------------------------------------------------------------------------------------------------------


  energy-cutoff  :      450.00
  volume of cell :      366.09
      direct lattice vectors                 reciprocal lattice vectors
     6.406954111 -0.000000026 -0.000000000     0.156080407  0.090113092  0.000000000
    -3.203480695  5.548589649  0.000000000     0.000000001  0.180225979  0.000000000
    -0.000000000  0.000000000 10.297972898     0.000000000  0.000000000  0.097106490

  length of vectors
     6.406954111  6.406959939 10.297972898     0.180226143  0.180225979  0.097106490



 k-points in units of 2pi/SCALE and weight: Automatic                               
   0.00000000  0.00000000  0.00000000       0.004
   0.01951005  0.01126414  0.00000000       0.023
   0.03902010  0.02252827  0.00000000       0.023
   0.05853015  0.03379241  0.00000000       0.023
   0.07804020  0.04505655  0.00000000       0.012
   0.01951005  0.03379238  0.00000000       0.023
   0.03902010  0.04505652  0.00000000       0.047
   0.05853015  0.05632066  0.00000000       0.047
   0.03902010  0.06758477  0.00000000       0.023
   0.05853015  0.07884890  0.00000000       0.023
   0.00000000  0.00000000  0.02427662       0.008
   0.01951005  0.01126414  0.02427662       0.047
   0.03902010  0.02252827  0.02427662       0.047
   0.05853015  0.03379241  0.02427662       0.047
   0.07804020  0.04505655  0.02427662       0.023
   0.01951005  0.03379238  0.02427662       0.047
   0.03902010  0.04505652  0.02427662       0.094
   0.05853015  0.05632066  0.02427662       0.094
   0.03902010  0.06758477  0.02427662       0.047
   0.05853015  0.07884890  0.02427662       0.047
   0.00000000  0.00000000  0.04855324       0.004
   0.01951005  0.01126414  0.04855324       0.023
   0.03902010  0.02252827  0.04855324       0.023
   0.05853015  0.03379241  0.04855324       0.023
   0.07804020  0.04505655  0.04855324       0.012
   0.01951005  0.03379238  0.04855324       0.023
   0.03902010  0.04505652  0.04855324       0.047
   0.05853015  0.05632066  0.04855324       0.047
   0.03902010  0.06758477  0.04855324       0.023
   0.05853015  0.07884890  0.04855324       0.023

 k-points in reciprocal lattice and weights: Automatic                               
   0.00000000  0.00000000  0.00000000       0.004
   0.12500000  0.00000000  0.00000000       0.023
   0.25000000  0.00000000  0.00000000       0.023
   0.37500000  0.00000000  0.00000000       0.023
   0.50000000  0.00000000  0.00000000       0.012
   0.12500000  0.12500000  0.00000000       0.023
   0.25000000  0.12500000  0.00000000       0.047
   0.37500000  0.12500000  0.00000000       0.047
   0.25000000  0.25000000  0.00000000       0.023
   0.37500000  0.25000000  0.00000000       0.023
   0.00000000  0.00000000  0.25000000       0.008
   0.12500000  0.00000000  0.25000000       0.047
   0.25000000  0.00000000  0.25000000       0.047
   0.37500000  0.00000000  0.25000000       0.047
   0.50000000  0.00000000  0.25000000       0.023
   0.12500000  0.12500000  0.25000000       0.047
   0.25000000  0.12500000  0.25000000       0.094
   0.37500000  0.12500000  0.25000000       0.094
   0.25000000  0.25000000  0.25000000       0.047
   0.37500000  0.25000000  0.25000000       0.047
   0.00000000  0.00000000  0.50000000       0.004
   0.12500000  0.00000000  0.50000000       0.023
   0.25000000  0.00000000  0.50000000       0.023
   0.37500000  0.00000000  0.50000000       0.023
   0.50000000  0.00000000  0.50000000       0.012
   0.12500000  0.12500000  0.50000000       0.023
   0.25000000  0.12500000  0.50000000       0.047
   0.37500000  0.12500000  0.50000000       0.047
   0.25000000  0.25000000  0.50000000       0.023
   0.37500000  0.25000000  0.50000000       0.023

 position of ions in fractional coordinates (direct lattice) 
   0.16666649  0.33333349  0.12500000
   0.16666649  0.33333349  0.62500000
   0.16666649  0.83333349  0.12500000
   0.16666649  0.83333349  0.62500000
   0.66666651  0.33333349  0.12500000
   0.66666651  0.33333349  0.62500000
   0.66666651  0.83333349  0.12500000
   0.66666651  0.83333349  0.62500000
   0.33333349  0.16666649  0.37500000
   0.33333349  0.16666649  0.87500000
   0.33333349  0.66666651  0.37500000
   0.33333349  0.66666651  0.87500000
   0.83333349  0.16666649  0.37500000
   0.83333349  0.16666649  0.87500000
   0.83333349  0.66666651  0.37500000
   0.83333349  0.66666651  0.87500000

 position of ions in cartesian coordinates  (Angst):
  -0.00000283  1.84953076  1.28724661
  -0.00000283  1.84953076  6.43623306
  -1.60174318  4.62382558  1.28724661
  -1.60174318  4.62382558  6.43623306
   3.20347432  1.84953075  1.28724661
   3.20347432  1.84953075  6.43623306
   1.60173397  4.62382557  1.28724661
   1.60173397  4.62382557  6.43623306
   1.60173949  0.92476397  3.86173984
   1.60173949  0.92476397  9.01072629
  -0.00000090  3.69905888  3.86173984
  -0.00000090  3.69905888  9.01072629
   4.80521655  0.92476396  3.86173984
   4.80521655  0.92476396  9.01072629
   3.20347615  3.69905886  3.86173984
   3.20347615  3.69905886  9.01072629



--------------------------------------------------------------------------------------------------------


 k-point  1 :   0.0000 0.0000 0.0000  plane waves:    7895
 k-point  2 :   0.1250 0.0000 0.0000  plane waves:    7895
 k-point  3 :   0.2500 0.0000 0.0000  plane waves:    7923
 k-point  4 :   0.3750 0.0000 0.0000  plane waves:    7945
 k-point  5 :   0.5000 0.0000 0.0000  plane waves:    7968
 k-point  6 :   0.1250 0.1250 0.0000  plane waves:    7935
 k-point  7 :   0.2500 0.1250 0.0000  plane waves:    7939
 k-point  8 :   0.3750 0.1250 0.0000  plane waves:    7945
 k-point  9 :   0.2500 0.2500 0.0000  plane waves:    7949
 k-point 10 :   0.3750 0.2500 0.0000  plane waves:    7957
 k-point 11 :   0.0000 0.0000 0.2500  plane waves:    7920
 k-point 12 :   0.1250 0.0000 0.2500  plane waves:    7910
 k-point 13 :   0.2500 0.0000 0.2500  plane waves:    7914
 k-point 14 :   0.3750 0.0000 0.2500  plane waves:    7954
 k-point 15 :   0.5000 0.0000 0.2500  plane waves:    7928
 k-point 16 :   0.1250 0.1250 0.2500  plane waves:    7924
 k-point 17 :   0.2500 0.1250 0.2500  plane waves:    7942
 k-point 18 :   0.3750 0.1250 0.2500  plane waves:    7939
 k-point 19 :   0.2500 0.2500 0.2500  plane waves:    7953
 k-point 20 :   0.3750 0.2500 0.2500  plane waves:    7949
 k-point 21 :   0.0000 0.0000 0.5000  plane waves:    7944
 k-point 22 :   0.1250 0.0000 0.5000  plane waves:    7932
 k-point 23 :   0.2500 0.0000 0.5000  plane waves:    7936
 k-point 24 :   0.3750 0.0000 0.5000  plane waves:    7934
 k-point 25 :   0.5000 0.0000 0.5000  plane waves:    7932
 k-point 26 :   0.1250 0.1250 0.5000  plane waves:    7928
 k-point 27 :   0.2500 0.1250 0.5000  plane waves:    7938
 k-point 28 :   0.3750 0.1250 0.5000  plane waves:    7940
 k-point 29 :   0.2500 0.2500 0.5000  plane waves:    7936
 k-point 30 :   0.3750 0.2500 0.5000  plane waves:    7952

 maximum and minimum number of plane-waves per node :       686      637

 maximum number of plane-waves:      7968
 maximum index in each direction: 
   IXMAX=   11   IYMAX=   11   IZMAX=   17
   IXMIN=  -11   IYMIN=  -11   IZMIN=  -18

 WARNING: aliasing errors must be expected set NGX to  46 to avoid them
 WARNING: aliasing errors must be expected set NGY to  46 to avoid them
 WARNING: aliasing errors must be expected set NGZ to  72 to avoid them
 aliasing errors are usually negligible using standard VASP settings
 and one can safely disregard these warnings

 parallel 3D FFT for wavefunctions:
    minimum data exchange during FFTs selected (reduces bandwidth)
 parallel 3D FFT for charge:
    minimum data exchange during FFTs selected (reduces bandwidth)


 total amount of memory used by VASP on root node    38005. kBytes
========================================================================

   base      :      30000. kBytes
   nonl-proj :       1436. kBytes
   fftplans  :        977. kBytes
   grid      :       1368. kBytes
   one-center:          6. kBytes
   wavefun   :       4218. kBytes

     INWAV:  cpu time    0.00: real time    0.00
 Broyden mixing: mesh for mixing (old mesh)
   NGX = 23   NGY = 23   NGZ = 35
  (NGX  = 72   NGY  = 72   NGZ  =108)
  gives a total of  18515 points

 initial charge density was supplied:
 charge density of overlapping atoms calculated
 number of electron      32.0000000 magnetization 
 keeping initial charge density in first step


--------------------------------------------------------------------------------------------------------


 Maximum index for augmentation-charges          422 (set IRDMAX)


--------------------------------------------------------------------------------------------------------


 First call to EWALD:  gamma=   0.248
 Maximum number of real-space cells 3x 3x 2
 Maximum number of reciprocal cells 3x 3x 4

 FEWALD executed in parallel
    FEWALD:  cpu time    0.00: real time    0.00


----------------------------------------- Iteration    1(   1)  ---------------------------------------


    POTLOK:  cpu time    0.03: real time    0.03
    SETDIJ:  cpu time    0.00: real time    0.00
     EDDAV:  cpu time    0.27: real time    0.27
       DOS:  cpu time    0.00: real time    0.00
    --------------------------------------------
      LOOP:  cpu time    0.31: real time    0.31

 eigenvalue-minimisations  :  1560
 total energy-change (2. order) : 0.2685539E+02  (-0.8554149E+03)
 number of electron      32.0000000 magnetization 
 augmentation part       32.0000000 magnetization 

 Free energy of the ion-electron system (eV)
  ---------------------------------------------------
  alpha Z        PSCENC =       -12.08098289
  Ewald energy   TEWEN  =      -468.76480827
  -Hartree energ DENC   =        -0.47235859
  -exchange      EXHF   =         0.00000000
  -V(xc)+E(xc)   XCENC  =      -130.69242842
  PAW double counting   =       186.18586259       -8.88314254
  entropy T*S    EENTRO =        -0.01368873
  eigenvalues    EBANDS =        92.26151239
  atomic energy  EATOM  =       369.31542285
  ---------------------------------------------------
  free energy    TOTEN  =        26.85538838 eV

  energy without entropy =       26.86907711  energy(sigma->0) =       26.86223275


--------------------------------------------------------------------------------------------------------




----------------------------------------- Iteration    1(   2)  ---------------------------------------


     EDDAV:  cpu time    0.31: real time    0.31
       DOS:  cpu time    0.00: real time    0.00
    --------------------------------------------
      LOOP:  cpu time    0.31: real time    0.32

 eigenvalue-minimisations  :  1912
 total energy-change (2. order) :-0.4889370E+02  (-0.4511332E+02)
 number of electron      32.0000000 magnetization 
 augmentation part       32.0000000 magnetization 

 Free energy of the ion-electron system (eV)
  ---------------------------------------------------
  alpha Z        PSCENC =       -12.08098289
  Ewald energy   TEWEN  =      -468.76480827
  -Hartree energ DENC   =        -0.47235859
  -exchange      EXHF   =         0.00000000
  -V(xc)+E(xc)   XCENC  =      -130.69242842
  PAW double counting   =       186.18586259       -8.88314254
  entropy T*S    EENTRO =        -0.01468908
  eigenvalues    EBANDS =        43.36881290
  atomic energy  EATOM  =       369.31542285
  ---------------------------------------------------
  free energy    TOTEN  =       -22.03831147 eV

  energy without entropy =      -22.02362239  energy(sigma->0) =      -22.03096693


--------------------------------------------------------------------------------------------------------




----------------------------------------- Iteration    1(   3)  ---------------------------------------


     EDDAV:  cpu time    0.34: real time    0.34
       DOS:  cpu time    0.00: real time    0.00
    --------------------------------------------
      LOOP:  cpu time    0.34: real time    0.35

 eigenvalue-minimisations  :  2008
 total energy-change (2. order) :-0.2262470E+01  (-0.2154389E+01)
 number of electron      32.0000000 magnetization 
 augmentation part       32.0000000 magnetization 

 Free energy of the ion-electron system (eV)
  ---------------------------------------------------
  alpha Z        PSCENC =       -12.08098289
  Ewald energy   TEWEN  =      -468.76480827
  -Hartree energ DENC   =        -0.47235859
  -exchange      EXHF   =         0.00000000
  -V(xc)+E(xc)   XCENC  =      -130.69242842
  PAW double counting   =       186.18586259       -8.88314254
  entropy T*S    EENTRO =        -0.01536843
  eigenvalues    EBANDS =        41.10702244
  atomic energy  EATOM  =       369.31542285
  ---------------------------------------------------
  free energy    TOTEN  =       -24.30078128 eV

  energy without entropy =      -24.28541285  energy(sigma->0) =      -24.29309706


--------------------------------------------------------------------------------------------------------




----------------------------------------- Iteration    1(   4)  ---------------------------------------


     EDDAV:  cpu time    0.33: real time    0.33
       DOS:  cpu time    0.00: real time    0.00
    --------------------------------------------
      LOOP:  cpu time    0.33: real time    0.34

 eigenvalue-minimisations  :  2066
 total energy-change (2. order) :-0.5632226E-01  (-0.5616120E-01)
 number of electron      32.0000000 magnetization 
 augmentation part       32.0000000 magnetization 

 Free energy of the ion-electron system (eV)
  ---------------------------------------------------
  alpha Z        PSCENC =       -12.08098289
  Ewald energy   TEWEN  =      -468.76480827
  -Hartree energ DENC   =        -0.47235859
  -exchange      EXHF   =         0.00000000
  -V(xc)+E(xc)   XCENC  =      -130.69242842
  PAW double counting   =       186.18586259       -8.88314254
  entropy T*S    EENTRO =        -0.01525746
  eigenvalues    EBANDS =        41.05058921
  atomic energy  EATOM  =       369.31542285
  ---------------------------------------------------
  free energy    TOTEN  =       -24.35710354 eV

  energy without entropy =      -24.34184607  energy(sigma->0) =      -24.34947481


--------------------------------------------------------------------------------------------------------




----------------------------------------- Iteration    1(   5)  ---------------------------------------


     EDDAV:  cpu time    0.34: real time    0.34
       DOS:  cpu time    0.00: real time    0.00
    CHARGE:  cpu time    0.05: real time    0.05
    MIXING:  cpu time    0.00: real time    0.00
    --------------------------------------------
      LOOP:  cpu time    0.39: real time    0.40

 eigenvalue-minimisations  :  2038
 total energy-change (2. order) :-0.1636994E-02  (-0.1636842E-02)
 number of electron      31.9999999 magnetization 
 augmentation part        0.1007312 magnetization 

 Broyden mixing:
  rms(total) = 0.27507E+00    rms(broyden)= 0.27507E+00
  rms(prec ) = 0.36434E+00
  weight for this iteration     100.00

 Free energy of the ion-electron system (eV)
  ---------------------------------------------------
  alpha Z        PSCENC =       -12.08098289
  Ewald energy   TEWEN  =      -468.76480827
  -Hartree energ DENC   =        -0.47235859
  -exchange      EXHF   =         0.00000000
  -V(xc)+E(xc)   XCENC  =      -130.69242842
  PAW double counting   =       186.18586259       -8.88314254
  entropy T*S    EENTRO =        -0.01525817
  eigenvalues    EBANDS =        41.04895292
  atomic energy  EATOM  =       369.31542285
  ---------------------------------------------------
  free energy    TOTEN  =       -24.35874053 eV

  energy without entropy =      -24.34348237  energy(sigma->0) =      -24.35111145


--------------------------------------------------------------------------------------------------------




----------------------------------------- Iteration    1(   6)  ---------------------------------------


    POTLOK:  cpu time    0.02: real time    0.02
    SETDIJ:  cpu time    0.00: real time    0.00
    EDDIAG:  cpu time    0.07: real time    0.07
  RMM-DIIS:  cpu time    0.20: real time    0.21
    ORTHCH:  cpu time    0.00: real time    0.00
       DOS:  cpu time    0.00: real time    0.00
    CHARGE:  cpu time    0.04: real time    0.05
    MIXING:  cpu time    0.00: real time    0.00
    --------------------------------------------
      LOOP:  cpu time    0.35: real time    0.36

 eigenvalue-minimisations  :  1560
 total energy-change (2. order) : 0.6491978E-03  (-0.8108455E-03)
 number of electron      31.9999999 magnetization 
 augmentation part        0.1001808 magnetization 

 Broyden mixing:
  rms(total) = 0.17625E+00    rms(broyden)= 0.17625E+00
  rms(prec ) = 0.23561E+00
  weight for this iteration     100.00

 eigenvalues of (default mixing * dielectric matrix)
  average eigenvalue GAMMA=   2.7545
  2.7545

 Free energy of the ion-electron system (eV)
  ---------------------------------------------------
  alpha Z        PSCENC =       -12.08098289
  Ewald energy   TEWEN  =      -468.76480827
  -Hartree energ DENC   =        -0.46286082
  -exchange      EXHF   =         0.00000000
  -V(xc)+E(xc)   XCENC  =      -130.28435984
  PAW double counting   =       185.76833216       -8.45191308
  entropy T*S    EENTRO =        -0.01533605
  eigenvalues    EBANDS =        40.61841459
  atomic energy  EATOM  =       369.31542285
  ---------------------------------------------------
  free energy    TOTEN  =       -24.35809134 eV

  energy without entropy =      -24.34275529  energy(sigma->0) =      -24.35042331


--------------------------------------------------------------------------------------------------------




----------------------------------------- Iteration    1(   7)  ---------------------------------------


    POTLOK:  cpu time    0.02: real time    0.02
    SETDIJ:  cpu time    0.00: real time    0.00
    EDDIAG:  cpu time    0.06: real time    0.07
  RMM-DIIS:  cpu time    0.20: real time    0.20
    ORTHCH:  cpu time    0.00: real time    0.00
       DOS:  cpu time    0.00: real time    0.00
    CHARGE:  cpu time    0.05: real time    0.05
    MIXING:  cpu time    0.00: real time    0.00
    --------------------------------------------
      LOOP:  cpu time    0.34: real time    0.35

 eigenvalue-minimisations  :  1560
 total energy-change (2. order) :-0.5039477E-02  (-0.2983988E-02)
 number of electron      31.9999999 magnetization 
 augmentation part        0.0997575 magnetization 

 Broyden mixing:
  rms(total) = 0.11685E-01    rms(broyden)= 0.11685E-01
  rms(prec ) = 0.13195E-01
  weight for this iteration     100.00

 eigenvalues of (default mixing * dielectric matrix)
  average eigenvalue GAMMA=   2.4639
  2.0836  2.8442

 Free energy of the ion-electron system (eV)
  ---------------------------------------------------
  alpha Z        PSCENC =       -12.08098289
  Ewald energy   TEWEN  =      -468.76480827
  -Hartree energ DENC   =        -0.92173318
  -exchange      EXHF   =         0.00000000
  -V(xc)+E(xc)   XCENC  =      -129.30615696
  PAW double counting   =       185.09008889       -7.75569760
  entropy T*S    EENTRO =        -0.01545728
  eigenvalues    EBANDS =        40.07619363
  atomic energy  EATOM  =       369.31542285
  ---------------------------------------------------
  free energy    TOTEN  =       -24.36313081 eV

  energy without entropy =      -24.34767353  energy(sigma->0) =      -24.35540217


--------------------------------------------------------------------------------------------------------




----------------------------------------- Iteration    1(   8)  ---------------------------------------


    POTLOK:  cpu time    0.02: real time    0.02
    SETDIJ:  cpu time    0.00: real time    0.00
    EDDIAG:  cpu time    0.06: real time    0.07
  RMM-DIIS:  cpu time    0.20: real time    0.20
    ORTHCH:  cpu time    0.00: real time    0.00
       DOS:  cpu time    0.00: real time    0.00
    CHARGE:  cpu time    0.04: real time    0.05
    MIXING:  cpu time    0.00: real time    0.00
    --------------------------------------------
      LOOP:  cpu time    0.34: real time    0.34

 eigenvalue-minimisations  :  1561
 total energy-change (2. order) : 0.1489207E-03  (-0.2682637E-04)
 number of electron      31.9999999 magnetization 
 augmentation part        0.0997674 magnetization 

 Broyden mixing:
  rms(total) = 0.37168E-02    rms(broyden)= 0.37168E-02
  rms(prec ) = 0.39453E-02
  weight for this iteration     100.00

 eigenvalues of (default mixing * dielectric matrix)
  average eigenvalue GAMMA=   2.1399
  1.0002  2.8548  2.5647

 Free energy of the ion-electron system (eV)
  ---------------------------------------------------
  alpha Z        PSCENC =       -12.08098289
  Ewald energy   TEWEN  =      -468.76480827
  -Hartree energ DENC   =        -0.95033876
  -exchange      EXHF   =         0.00000000
  -V(xc)+E(xc)   XCENC  =      -129.26765334
  PAW double counting   =       185.13926672       -7.80684587
  entropy T*S    EENTRO =        -0.01545458
  eigenvalues    EBANDS =        40.06841225
  atomic energy  EATOM  =       369.31542285
  ---------------------------------------------------
  free energy    TOTEN  =       -24.36298189 eV

  energy without entropy =      -24.34752732  energy(sigma->0) =      -24.35525460


--------------------------------------------------------------------------------------------------------




----------------------------------------- Iteration    1(   9)  ---------------------------------------


    POTLOK:  cpu time    0.02: real time    0.02
    SETDIJ:  cpu time    0.00: real time    0.00
    EDDIAG:  cpu time    0.06: real time    0.07
  RMM-DIIS:  cpu time    0.20: real time    0.20
    ORTHCH:  cpu time    0.00: real time    0.00
       DOS:  cpu time    0.00: real time    0.00
    CHARGE:  cpu time    0.05: real time    0.05
    MIXING:  cpu time    0.00: real time    0.00
    --------------------------------------------
      LOOP:  cpu time    0.34: real time    0.35

 eigenvalue-minimisations  :  1619
 total energy-change (2. order) :-0.1273275E-04  (-0.4675823E-05)
 number of electron      31.9999999 magnetization 
 augmentation part        0.0999552 magnetization 

 Broyden mixing:
  rms(total) = 0.21115E-03    rms(broyden)= 0.21115E-03
  rms(prec ) = 0.25145E-03
  weight for this iteration     100.00

 eigenvalues of (default mixing * dielectric matrix)
  average eigenvalue GAMMA=   2.1750
  1.0024  2.9309  2.4485  2.3183

 Free energy of the ion-electron system (eV)
  ---------------------------------------------------
  alpha Z        PSCENC =       -12.08098289
  Ewald energy   TEWEN  =      -468.76480827
  -Hartree energ DENC   =        -0.95591147
  -exchange      EXHF   =         0.00000000
  -V(xc)+E(xc)   XCENC  =      -129.26100601
  PAW double counting   =       185.16951082       -7.83873928
  entropy T*S    EENTRO =        -0.01545281
  eigenvalues    EBANDS =        40.06897242
  atomic energy  EATOM  =       369.31542285
  ---------------------------------------------------
  free energy    TOTEN  =       -24.36299463 eV

  energy without entropy =      -24.34754182  energy(sigma->0) =      -24.35526822


--------------------------------------------------------------------------------------------------------




----------------------------------------- Iteration    1(  10)  ---------------------------------------


    POTLOK:  cpu time    0.02: real time    0.02
    SETDIJ:  cpu time    0.00: real time    0.00
    EDDIAG:  cpu time    0.07: real time    0.07
  RMM-DIIS:  cpu time    0.19: real time    0.19
    ORTHCH:  cpu time    0.00: real time    0.00
       DOS:  cpu time    0.00: real time    0.00
    CHARGE:  cpu time    0.05: real time    0.05
    MIXING:  cpu time    0.00: real time    0.00
    --------------------------------------------
      LOOP:  cpu time    0.33: real time    0.35

 eigenvalue-minimisations  :  1489
 total energy-change (2. order) :-0.3843531E-05  (-0.6200348E-06)
 number of electron      31.9999999 magnetization 
 augmentation part        0.1000399 magnetization 

 Broyden mixing:
  rms(total) = 0.84872E-04    rms(broyden)= 0.84872E-04
  rms(prec ) = 0.11042E-03
  weight for this iteration     100.00

 eigenvalues of (default mixing * dielectric matrix)
  average eigenvalue GAMMA=   2.0509
  2.8222  2.8222  2.4662  1.0055  1.1382

 Free energy of the ion-electron system (eV)
  ---------------------------------------------------
  alpha Z        PSCENC =       -12.08098289
  Ewald energy   TEWEN  =      -468.76480827
  -Hartree energ DENC   =        -0.95651987
  -exchange      EXHF   =         0.00000000
  -V(xc)+E(xc)   XCENC  =      -129.26008950
  PAW double counting   =       185.17553810       -7.84563211
  entropy T*S    EENTRO =        -0.01545288
  eigenvalues    EBANDS =        40.06952610
  atomic energy  EATOM  =       369.31542285
  ---------------------------------------------------
  free energy    TOTEN  =       -24.36299847 eV

  energy without entropy =      -24.34754559  energy(sigma->0) =      -24.35527203


--------------------------------------------------------------------------------------------------------




----------------------------------------- Iteration    1(  11)  ---------------------------------------


    POTLOK:  cpu time    0.02: real time    0.02
    SETDIJ:  cpu time    0.00: real time    0.00
    EDDIAG:  cpu time    0.07: real time    0.07
  RMM-DIIS:  cpu time    0.13: real time    0.13
    ORTHCH:  cpu time    0.00: real time    0.00
       DOS:  cpu time    0.00: real time    0.00
    CHARGE:  cpu time    0.05: real time    0.05
    MIXING:  cpu time    0.00: real time    0.00
    --------------------------------------------
      LOOP:  cpu time    0.28: real time    0.29

 eigenvalue-minimisations  :   951
 total energy-change (2. order) :-0.1249047E-05  (-0.4867607E-07)
 number of electron      31.9999999 magnetization 
 augmentation part        0.1000529 magnetization 

 Broyden mixing:
  rms(total) = 0.20436E-04    rms(broyden)= 0.20435E-04
  rms(prec ) = 0.24629E-04
  weight for this iteration     100.00

 eigenvalues of (default mixing * dielectric matrix)
  average eigenvalue GAMMA=   2.0891
  0.9996  0.9996  2.9909  2.6863  2.6355  2.2230

 Free energy of the ion-electron system (eV)
  ---------------------------------------------------
  alpha Z        PSCENC =       -12.08098289
  Ewald energy   TEWEN  =      -468.76480827
  -Hartree energ DENC   =        -0.95615951
  -exchange      EXHF   =         0.00000000
  -V(xc)+E(xc)   XCENC  =      -129.26059535
  PAW double counting   =       185.17771508       -7.84804355
  entropy T*S    EENTRO =        -0.01545288
  eigenvalues    EBANDS =        40.06990482
  atomic energy  EATOM  =       369.31542285
  ---------------------------------------------------
  free energy    TOTEN  =       -24.36299972 eV

  energy without entropy =      -24.34754683  energy(sigma->0) =      -24.35527328


--------------------------------------------------------------------------------------------------------




----------------------------------------- Iteration    1(  12)  ---------------------------------------


    POTLOK:  cpu time    0.02: real time    0.02
    SETDIJ:  cpu time    0.00: real time    0.00
    EDDIAG:  cpu time    0.06: real time    0.07
  RMM-DIIS:  cpu time    0.12: real time    0.12
    ORTHCH:  cpu time    0.00: real time    0.00
       DOS:  cpu time    0.00: real time    0.00
    --------------------------------------------
      LOOP:  cpu time    0.22: real time    0.23

 eigenvalue-minimisations  :   763
 total energy-change (2. order) :-0.3776734E-06  (-0.2051393E-07)
 number of electron      31.9999999 magnetization 
 augmentation part        0.1000529 magnetization 

 Free energy of the ion-electron system (eV)
  ---------------------------------------------------
  alpha Z        PSCENC =       -12.08098289
  Ewald energy   TEWEN  =      -468.76480827
  -Hartree energ DENC   =        -0.95618400
  -exchange      EXHF   =         0.00000000
  -V(xc)+E(xc)   XCENC  =      -129.26055929
  PAW double counting   =       185.17809066       -7.84843486
  entropy T*S    EENTRO =        -0.01545292
  eigenvalues    EBANDS =        40.06990861
  atomic energy  EATOM  =       369.31542285
  ---------------------------------------------------
  free energy    TOTEN  =       -24.36300010 eV

  energy without entropy =      -24.34754718  energy(sigma->0) =      -24.35527364


--------------------------------------------------------------------------------------------------------




 average (electrostatic) potential at core
  the test charge radii are     1.0714
  (the norm of the test charge is              1.0000)
       1 -54.1070       2 -54.1070       3 -54.1070       4 -54.1070       5 -54.1070
       6 -54.1070       7 -54.1070       8 -54.1070       9 -54.1070      10 -54.1070
      11 -54.1070      12 -54.1070      13 -54.1070      14 -54.1070      15 -54.1070
      16 -54.1070



 E-fermi :   4.0098     XC(G=0):  -8.2168     alpha+bet : -8.8770


 k-point     1 :       0.0000    0.0000    0.0000
  band No.  band energies     occupation 
      1      -2.9458      2.00000
      2      -1.5330      2.00000
      3      -1.5330      2.00000
      4       1.8177      2.00000
      5       1.8177      2.00000
      6       1.8177      2.00000
      7       1.8356      2.00000
      8       1.8356      2.00000
      9       1.8356      2.00000
     10       2.3675      2.00000
     11       2.8433      2.00000
     12       2.8837      2.00000
     13       2.8837      2.00000
     14       2.8837      2.00000
     15       2.8837      2.00000
     16       2.8837      2.00000
     17       2.8837      2.00000
     18       3.5376      2.00000
     19       3.5376      2.00000
     20       3.5376      2.00000
     21       3.5376      2.00000
     22       3.5376      2.00000
     23       3.5376      2.00000
     24       6.6668      0.00000
     25       6.6669      0.00000
     26       6.6676      0.00000

 k-point     2 :       0.1250    0.0000    0.0000
  band No.  band energies     occupation 
      1      -2.8692      2.00000
      2      -1.4576      2.00000
      3      -1.4576      2.00000
      4       0.7330      2.00000
      5       1.3187      2.00000
      6       1.3187      2.00000
      7       2.0736      2.00000
      8       2.0736      2.00000
      9       2.4373      2.00000
     10       2.4726      2.00000
     11       2.4726      2.00000
     12       2.6150      2.00000
     13       2.6150      2.00000
     14       2.6150      2.00000
     15       2.6150      2.00000
     16       2.9177      2.00000
     17       3.0348      2.00000
     18       3.9461      1.85460
     19       3.9461      1.85460
     20       3.9461      1.85459
     21       3.9461      1.85459
     22       4.4800      0.00000
     23       4.4800      0.00000
     24       5.7903      0.00000
     25       6.3365      0.00000
     26       6.3393      0.00000

 k-point     3 :       0.2500    0.0000    0.0000
  band No.  band energies     occupation 
      1      -2.6400      2.00000
      2      -1.2317      2.00000
      3      -1.2317      2.00000
      4      -0.2284      2.00000
      5       0.9535      2.00000
      6       0.9535      2.00000
      7       1.1408      2.00000
      8       1.1408      2.00000
      9       2.2885      2.00000
     10       2.2885      2.00000
     11       2.2885      2.00000
     12       2.2885      2.00000
     13       2.6468      2.00000
     14       3.1392      2.00000
     15       3.2484      2.00000
     16       3.2484      2.00000
     17       4.2527      0.00012
     18       4.6888      0.00000
     19       4.6888      0.00000
     20       4.6888      0.00000
     21       4.6888      0.00000
     22       4.8847      0.00000
     23       5.7944      0.00000
     24       5.8080      0.00000
     25       5.8108      0.00000
     26       5.9998      0.00000

 k-point     4 :       0.3750    0.0000    0.0000
  band No.  band energies     occupation 
      1      -2.2591      2.00000
      2      -1.0504      2.00000
      3      -0.8564      2.00000
      4      -0.8564      2.00000
      5       0.3338      2.00000
      6       0.3338      2.00000
      7       0.7334      2.00000
      8       0.7334      2.00000
      9       2.0806      2.00000
     10       2.0806      2.00000
     11       2.0806      2.00000
     12       2.0806      2.00000
     13       2.9961      2.00000
     14       3.5023      2.00000
     15       4.1151      0.02913
     16       4.1355      0.01298
     17       4.1355      0.01298
     18       4.5216      0.00000
     19       5.5697      0.00000
     20       5.5697      0.00000
     21       5.5697      0.00000
     22       5.5697      0.00000
     23       5.7929      0.00000
     24       5.7931      0.00000
     25       6.0132      0.00000
     26       6.0152      0.00000

 k-point     5 :       0.5000    0.0000    0.0000
  band No.  band energies     occupation 
      1      -1.7284      2.00000
      2      -1.7284      2.00000
      3      -0.3336      2.00000
      4      -0.3336      2.00000
      5      -0.3336      2.00000
      6      -0.3336      2.00000
      7       0.6599      2.00000
      8       0.6599      2.00000
      9       2.0102      2.00000
     10       2.0102      2.00000
     11       2.0102      2.00000
     12       2.0102      2.00000
     13       3.4855      2.00000
     14       3.4855      2.00000
     15       3.9909      1.36106
     16       3.9909      1.36105
     17       4.9642      0.00000
     18       4.9643      0.00000
     19       5.2594      0.00000
     20       5.2594      0.00000
     21       5.7237      0.00000
     22       5.7237      0.00000
     23       6.2827      0.00000
     24       6.2827      0.00000
     25       6.2827      0.00000
     26       6.2827      0.00000

 k-point     6 :       0.1250    0.1250    0.0000
  band No.  band energies     occupation 
      1      -2.7163      2.00000
      2      -1.3069      2.00000
      3      -1.3069      2.00000
      4       0.2907      2.00000
      5       0.2907      2.00000
      6       1.6478      2.00000
      7       1.6478      2.00000
      8       1.6478      2.00000
      9       1.6478      2.00000
     10       2.0379      2.00000
     11       2.0503      2.00000
     12       2.5770      2.00000
     13       3.0656      2.00000
     14       3.0901      2.00000
     15       3.0901      2.00000
     16       3.7148      1.99998
     17       3.7148      1.99998
     18       3.7569      1.99992
     19       3.7569      1.99992
     20       5.1767      0.00000
     21       5.1767      0.00000
     22       5.1767      0.00000
     23       5.1767      0.00000
     24       5.3736      0.00000
     25       5.3736      0.00000
     26       6.1546      0.00000

 k-point     7 :       0.2500    0.1250    0.0000
  band No.  band energies     occupation 
      1      -2.4112      2.00000
      2      -1.0063      2.00000
      3      -1.0063      2.00000
      4      -0.6011      2.00000
      5      -0.0055      2.00000
      6       0.7754      2.00000
      7       0.7754      2.00000
      8       1.3596      2.00000
      9       1.3596      2.00000
     10       1.7560      2.00000
     11       2.8563      2.00000
     12       2.9029      2.00000
     13       3.0360      2.00000
     14       3.0360      2.00000
     15       3.3582      2.00000
     16       4.3666      0.00000
     17       4.3666      0.00000
     18       4.4594      0.00000
     19       4.5350      0.00000
     20       4.6570      0.00000
     21       5.0946      0.00000
     22       5.8123      0.00000
     23       5.9392      0.00000
     24       6.0062      0.00000
     25       6.0063      0.00000
     26       6.1101      0.00000

 k-point     8 :       0.3750    0.1250    0.0000
  band No.  band energies     occupation 
      1      -1.9554      2.00000
      2      -1.3511      2.00000
      3      -0.5573      2.00000
      4      -0.5573      2.00000
      5      -0.1540      2.00000
      6       0.0379      2.00000
      7       0.0379      2.00000
      8       1.2145      2.00000
      9       1.2145      2.00000
     10       1.6112      2.00000
     11       2.9245      2.00000
     12       2.9245      2.00000
     13       3.2757      2.00000
     14       3.7860      1.99974
     15       3.8352      1.99814
     16       3.8843      1.98686
     17       4.3163      0.00001
     18       4.9549      0.00000
     19       4.9730      0.00000
     20       5.0282      0.00000
     21       5.2429      0.00000
     22       5.2429      0.00000
     23       6.0496      0.00000
     24       6.6266      0.00000
     25       6.6507      0.00000
     26       6.6617      0.00000

 k-point     9 :       0.2500    0.2500    0.0000
  band No.  band energies     occupation 
      1      -2.0313      2.00000
      2      -0.8254      2.00000
      3      -0.8254      2.00000
      4      -0.6319      2.00000
      5      -0.6319      2.00000
      6       0.5550      2.00000
      7       0.5550      2.00000
      8       0.5550      2.00000
      9       0.5550      2.00000
     10       2.6910      2.00000
     11       2.6938      2.00000
     12       3.2058      2.00000
     13       3.6987      1.99999
     14       3.6987      1.99999
     15       3.7165      1.99998
     16       4.3251      0.00001
     17       4.3251      0.00001
     18       4.3771      0.00000
     19       4.3771      0.00000
     20       4.7159      0.00000
     21       4.7159      0.00000
     22       4.9190      0.00000
     23       6.4291      0.00000
     24       6.4291      0.00000
     25       6.5403      0.00000
     26       6.5403      0.00000

 k-point    10 :       0.3750    0.2500    0.0000
  band No.  band energies     occupation 
      1      -1.5018      2.00000
      2      -1.5018      2.00000
      3      -0.9003      2.00000
      4      -0.1105      2.00000
      5      -0.1105      2.00000
      6      -0.1105      2.00000
      7      -0.1105      2.00000
      8       0.4814      2.00000
      9       0.4814      2.00000
     10       2.6218      2.00000
     11       3.6953      1.99999
     12       3.6953      1.99999
     13       3.7426      1.99995
     14       3.7644      1.99989
     15       3.8267      1.99868
     16       3.8267      1.99868
     17       4.1967      0.00113
     18       4.1967      0.00113
     19       4.2551      0.00011
     20       4.6957      0.00000
     21       4.8699      0.00000
     22       4.8699      0.00000
     23       5.7178      0.00000
     24       5.7178      0.00000
     25       7.1745      0.00000
     26       7.5980      0.00000

 k-point    11 :       0.0000    0.0000    0.2500
  band No.  band energies     occupation 
      1      -2.8568      2.00000
      2      -2.1485      2.00000
      3      -0.7476      2.00000
      4       1.3096      2.00000
      5       1.9018      2.00000
      6       1.9018      2.00000
      7       1.9018      2.00000
      8       1.9169      2.00000
      9       1.9169      2.00000
     10       1.9169      2.00000
     11       2.5430      2.00000
     12       2.5430      2.00000
     13       2.5430      2.00000
     14       2.5453      2.00000
     15       2.5453      2.00000
     16       2.5453      2.00000
     17       4.0309      0.60087
     18       4.0309      0.60083
     19       4.0309      0.60074
     20       4.0464      0.37559
     21       4.0464      0.37556
     22       4.0464      0.37546
     23       4.0547      0.28461
     24       5.9078      0.00000
     25       5.9090      0.00000
     26       5.9215      0.00000

 k-point    12 :       0.1250    0.0000    0.2500
  band No.  band energies     occupation 
      1      -2.7804      2.00000
      2      -2.0726      2.00000
      3      -0.6728      2.00000
      4       0.8182      2.00000
      5       1.3824      2.00000
      6       1.4029      2.00000
      7       1.4029      2.00000
      8       1.4940      2.00000
      9       2.0665      2.00000
     10       2.0665      2.00000
     11       2.5517      2.00000
     12       2.5517      2.00000
     13       2.7769      2.00000
     14       3.0209      2.00000
     15       3.0210      2.00000
     16       3.1033      2.00000
     17       3.7082      1.99999
     18       3.7082      1.99999
     19       3.9514      1.82336
     20       4.1257      0.01921
     21       4.6483      0.00000
     22       4.6483      0.00000
     23       4.9147      0.00000
     24       5.2068      0.00000
     25       5.4526      0.00000
     26       5.4526      0.00000

 k-point    13 :       0.2500    0.0000    0.2500
  band No.  band energies     occupation 
      1      -2.5513      2.00000
      2      -1.8452      2.00000
      3      -0.4488      2.00000
      4      -0.1421      2.00000
      5       0.5452      2.00000
      6       1.0384      2.00000
      7       1.0384      2.00000
      8       1.6005      2.00000
      9       1.7117      2.00000
     10       1.7117      2.00000
     11       1.8971      2.00000
     12       2.9867      2.00000
     13       2.9867      2.00000
     14       3.3159      2.00000
     15       3.3159      2.00000
     16       3.7794      1.99980
     17       4.1664      0.00380
     18       4.1664      0.00380
     19       4.3374      0.00000
     20       4.6369      0.00000
     21       5.1136      0.00000
     22       5.1136      0.00000
     23       5.2369      0.00000
     24       5.4054      0.00000
     25       5.4054      0.00000
     26       6.5421      0.00000

 k-point    14 :       0.3750    0.0000    0.2500
  band No.  band energies     occupation 
      1      -2.1708      2.00000
      2      -1.4674      2.00000
      3      -0.9632      2.00000
      4      -0.2690      2.00000
      5      -0.0768      2.00000
      6       0.8186      2.00000
      7       0.8186      2.00000
      8       1.1018      2.00000
      9       1.4960      2.00000
     10       1.4960      2.00000
     11       1.9624      2.00000
     12       2.8150      2.00000
     13       2.8150      2.00000
     14       3.0995      2.00000
     15       4.1352      0.01317
     16       4.1352      0.01317
     17       4.6847      0.00000
     18       4.9716      0.00000
     19       4.9716      0.00000
     20       5.0299      0.00000
     21       5.0299      0.00000
     22       5.5187      0.00000
     23       6.2247      0.00000
     24       6.2248      0.00000
     25       6.4702      0.00000
     26       6.4882      0.00000

 k-point    15 :       0.5000    0.0000    0.2500
  band No.  band energies     occupation 
      1      -1.6406      2.00000
      2      -1.6406      2.00000
      3      -0.9411      2.00000
      4      -0.9411      2.00000
      5       0.4413      2.00000
      6       0.4413      2.00000
      7       0.7452      2.00000
      8       0.7452      2.00000
      9       1.4238      2.00000
     10       1.4238      2.00000
     11       2.4649      2.00000
     12       2.4649      2.00000
     13       2.7509      2.00000
     14       2.7509      2.00000
     15       4.5264      0.00000
     16       4.5264      0.00000
     17       5.1478      0.00000
     18       5.1478      0.00000
     19       5.3379      0.00000
     20       5.3379      0.00000
     21       5.5847      0.00000
     22       5.5847      0.00000
     23       5.9350      0.00000
     24       5.9350      0.00000
     25       6.0866      0.00000
     26       6.0866      0.00000

 k-point    16 :       0.1250    0.1250    0.2500
  band No.  band energies     occupation 
      1      -2.6276      2.00000
      2      -1.9209      2.00000
      3      -0.5234      2.00000
      4       0.3765      2.00000
      5       0.3765      2.00000
      6       1.0584      2.00000
      7       1.0584      2.00000
      8       1.5279      2.00000
      9       2.1214      2.00000
     10       2.1314      2.00000
     11       2.3903      2.00000
     12       2.3903      2.00000
     13       2.7549      2.00000
     14       2.7585      2.00000
     15       3.7209      1.99998
     16       3.7209      1.99998
     17       4.2480      0.00015
     18       4.2506      0.00013
     19       4.2670      0.00007
     20       4.5767      0.00000
     21       4.5767      0.00000
     22       4.6152      0.00000
     23       4.6152      0.00000
     24       5.9036      0.00000
     25       5.9048      0.00000
     26       6.0567      0.00000

 k-point    17 :       0.2500    0.1250    0.2500
  band No.  band energies     occupation 
      1      -2.3228      2.00000
      2      -1.6184      2.00000
      3      -0.5144      2.00000
      4      -0.2254      2.00000
      5       0.0806      2.00000
      6       0.1762      2.00000
      7       0.7659      2.00000
      8       1.5380      2.00000
      9       1.8179      2.00000
     10       1.8394      2.00000
     11       2.1129      2.00000
     12       2.4963      2.00000
     13       2.9808      2.00000
     14       3.4328      2.00000
     15       3.5065      2.00000
     16       3.9843      1.46877
     17       4.1362      0.01266
     18       4.5469      0.00000
     19       4.8495      0.00000
     20       5.0421      0.00000
     21       5.2394      0.00000
     22       5.4438      0.00000
     23       5.7202      0.00000
     24       5.9980      0.00000
     25       6.4255      0.00000
     26       6.4812      0.00000

 k-point    18 :       0.3750    0.1250    0.2500
  band No.  band energies     occupation 
      1      -1.8674      2.00000
      2      -1.2636      2.00000
      3      -1.1663      2.00000
      4      -0.5671      2.00000
      5      -0.0677      2.00000
      6       0.2197      2.00000
      7       0.6191      2.00000
      8       0.8091      2.00000
      9       1.6952      2.00000
     10       1.9716      2.00000
     11       2.2503      2.00000
     12       2.3592      2.00000
     13       2.8202      2.00000
     14       3.5991      2.00000
     15       3.9177      1.95090
     16       3.9480      1.84436
     17       4.7752      0.00000
     18       4.9556      0.00000
     19       4.9834      0.00000
     20       5.4413      0.00000
     21       5.6189      0.00000
     22       5.6564      0.00000
     23       5.9375      0.00000
     24       6.3911      0.00000
     25       6.4402      0.00000
     26       6.4728      0.00000

 k-point    19 :       0.2500    0.2500    0.2500
  band No.  band energies     occupation 
      1      -1.9432      2.00000
      2      -1.2415      2.00000
      3      -0.7385      2.00000
      4      -0.7385      2.00000
      5      -0.0460      2.00000
      6      -0.0460      2.00000
      7       0.1457      2.00000
      8       1.3207      2.00000
      9       1.3207      2.00000
     10       2.1785      2.00000
     11       2.7721      2.00000
     12       2.7743      2.00000
     13       3.3105      2.00000
     14       3.3105      2.00000
     15       3.3832      2.00000
     16       3.3897      2.00000
     17       4.7163      0.00000
     18       4.8899      0.00000
     19       4.8902      0.00000
     20       4.9677      0.00000
     21       5.7169      0.00000
     22       5.7169      0.00000
     23       6.0955      0.00000
     24       6.6540      0.00000
     25       6.6588      0.00000
     26       6.8945      0.00000

 k-point    20 :       0.3750    0.2500    0.2500
  band No.  band energies     occupation 
      1      -1.4142      2.00000
      2      -1.4142      2.00000
      3      -0.8133      2.00000
      4      -0.7165      2.00000
      5      -0.7165      2.00000
      6      -0.1203      2.00000
      7       0.6623      2.00000
      8       0.6623      2.00000
      9       1.2481      2.00000
     10       2.6791      2.00000
     11       2.6791      2.00000
     12       2.7032      2.00000
     13       3.2430      2.00000
     14       3.3359      2.00000
     15       3.8115      1.99928
     16       3.8441      1.99736
     17       4.1387      0.01143
     18       4.4557      0.00000
     19       5.1367      0.00000
     20       5.3456      0.00000
     21       5.3456      0.00000
     22       5.7966      0.00000
     23       6.0349      0.00000
     24       6.1999      0.00000
     25       6.7965      0.00000
     26       7.2515      0.00000

 k-point    21 :       0.0000    0.0000    0.5000
  band No.  band energies     occupation 
      1      -2.5906      2.00000
      2      -2.5906      2.00000
      3       0.2031      2.00000
      4       0.2031      2.00000
      5       2.1507      2.00000
      6       2.1507      2.00000
      7       2.1507      2.00000
      8       2.1507      2.00000
      9       2.1507      2.00000
     10       2.1507      2.00000
     11       2.1582      2.00000
     12       2.1582      2.00000
     13       2.1582      2.00000
     14       2.1582      2.00000
     15       2.1582      2.00000
     16       2.1582      2.00000
     17       4.9087      0.00000
     18       4.9087      0.00000
     19       4.9087      0.00000
     20       4.9087      0.00000
     21       4.9092      0.00000
     22       4.9097      0.00000
     23       4.9103      0.00000
     24       4.9103      0.00000
     25       4.9104      0.00000
     26       4.9104      0.00000

 k-point    22 :       0.1250    0.0000    0.5000
  band No.  band energies     occupation 
      1      -2.5143      2.00000
      2      -2.5143      2.00000
      3       0.2771      2.00000
      4       0.2771      2.00000
      5       1.0728      2.00000
      6       1.0728      2.00000
      7       1.6541      2.00000
      8       1.6541      2.00000
      9       1.6541      2.00000
     10       1.6541      2.00000
     11       2.7784      2.00000
     12       2.7784      2.00000
     13       2.7784      2.00000
     14       2.7784      2.00000
     15       3.2292      2.00000
     16       3.2292      2.00000
     17       3.9930      1.32230
     18       3.9930      1.32230
     19       4.4377      0.00000
     20       4.4377      0.00000
     21       4.4377      0.00000
     22       4.4377      0.00000
     23       5.5314      0.00000
     24       5.5314      0.00000
     25       5.5357      0.00000
     26       5.5436      0.00000

 k-point    23 :       0.2500    0.0000    0.5000
  band No.  band energies     occupation 
      1      -2.2859      2.00000
      2      -2.2859      2.00000
      3       0.1164      2.00000
      4       0.1164      2.00000
      5       0.4986      2.00000
      6       0.4986      2.00000
      7       1.2922      2.00000
      8       1.2922      2.00000
      9       1.2922      2.00000
     10       1.2922      2.00000
     11       2.7994      2.00000
     12       2.7994      2.00000
     13       3.4368      2.00000
     14       3.4368      2.00000
     15       3.4368      2.00000
     16       3.4368      2.00000
     17       4.2064      0.00077
     18       4.2064      0.00077
     19       4.2064      0.00077
     20       4.2064      0.00077
     21       4.8331      0.00000
     22       4.8331      0.00000
     23       5.8941      0.00000
     24       5.8944      0.00000
     25       6.2674      0.00000
     26       6.2674      0.00000

 k-point    24 :       0.3750    0.0000    0.5000
  band No.  band energies     occupation 
      1      -1.9064      2.00000
      2      -1.9064      2.00000
      3      -0.7022      2.00000
      4      -0.7022      2.00000
      5       0.8663      2.00000
      6       0.8663      2.00000
      7       1.0736      2.00000
      8       1.0736      2.00000
      9       1.0736      2.00000
     10       1.0736      2.00000
     11       2.0285      2.00000
     12       2.0285      2.00000
     13       3.6475      2.00000
     14       3.6475      2.00000
     15       3.6475      2.00000
     16       3.6475      2.00000
     17       4.6898      0.00000
     18       4.6898      0.00000
     19       4.6898      0.00000
     20       4.6898      0.00000
     21       6.1944      0.00000
     22       6.1944      0.00000
     23       6.2237      0.00000
     24       6.2237      0.00000
     25       6.6446      0.00000
     26       6.6446      0.00000

 k-point    25 :       0.5000    0.0000    0.5000
  band No.  band energies     occupation 
      1      -1.3777      2.00000
      2      -1.3777      2.00000
      3      -1.3777      2.00000
      4      -1.3777      2.00000
      5       1.0006      2.00000
      6       1.0006      2.00000
      7       1.0006      2.00000
      8       1.0006      2.00000
      9       1.3779      2.00000
     10       1.3779      2.00000
     11       1.3779      2.00000
     12       1.3779      2.00000
     13       3.6226      2.00000
     14       3.6226      2.00000
     15       3.6226      2.00000
     16       3.6226      2.00000
     17       5.5700      0.00000
     18       5.5700      0.00000
     19       5.5700      0.00000
     20       5.5700      0.00000
     21       5.7485      0.00000
     22       5.7485      0.00000
     23       5.7485      0.00000
     24       5.7485      0.00000
     25       6.6177      0.00000
     26       6.6177      0.00000

 k-point    26 :       0.1250    0.1250    0.5000
  band No.  band energies     occupation 
      1      -2.3620      2.00000
      2      -2.3620      2.00000
      3       0.4248      2.00000
      4       0.4248      2.00000
      5       0.6331      2.00000
      6       0.6331      2.00000
      7       0.6331      2.00000
      8       0.6331      2.00000
      9       2.3683      2.00000
     10       2.3683      2.00000
     11       2.3720      2.00000
     12       2.3720      2.00000
     13       3.2367      2.00000
     14       3.2367      2.00000
     15       3.2367      2.00000
     16       3.2367      2.00000
     17       4.2664      0.00007
     18       4.2664      0.00007
     19       4.2664      0.00007
     20       4.2664      0.00007
     21       5.0935      0.00000
     22       5.0935      0.00000
     23       5.1232      0.00000
     24       5.1232      0.00000
     25       5.8264      0.00000
     26       5.8264      0.00000

 k-point    27 :       0.2500    0.1250    0.5000
  band No.  band energies     occupation 
      1      -2.0580      2.00000
      2      -2.0580      2.00000
      3      -0.2547      2.00000
      4      -0.2547      2.00000
      5       0.3384      2.00000
      6       0.3384      2.00000
      7       0.7194      2.00000
      8       0.7194      2.00000
      9       2.0884      2.00000
     10       2.0884      2.00000
     11       2.4555      2.00000
     12       2.4555      2.00000
     13       3.0108      2.00000
     14       3.0108      2.00000
     15       3.2030      2.00000
     16       3.2030      2.00000
     17       4.8284      0.00000
     18       4.8284      0.00000
     19       5.0441      0.00000
     20       5.0441      0.00000
     21       5.5701      0.00000
     22       5.5701      0.00000
     23       5.8454      0.00000
     24       5.8454      0.00000
     25       6.0944      0.00000
     26       6.0944      0.00000

 k-point    28 :       0.3750    0.1250    0.5000
  band No.  band energies     occupation 
      1      -1.6039      2.00000
      2      -1.6039      2.00000
      3      -1.0018      2.00000
      4      -1.0018      2.00000
      5       0.1906      2.00000
      6       0.1906      2.00000
      7       1.1592      2.00000
      8       1.1592      2.00000
      9       1.7407      2.00000
     10       1.7407      2.00000
     11       1.9458      2.00000
     12       1.9458      2.00000
     13       2.8805      2.00000
     14       2.8805      2.00000
     15       4.0466      0.37305
     16       4.0466      0.37305
     17       4.7292      0.00000
     18       4.7292      0.00000
     19       5.5336      0.00000
     20       5.5336      0.00000
     21       5.9821      0.00000
     22       5.9821      0.00000
     23       6.4721      0.00000
     24       6.4722      0.00000
     25       6.7036      0.00000
     26       6.7047      0.00000

 k-point    29 :       0.2500    0.2500    0.5000
  band No.  band energies     occupation 
      1      -1.6794      2.00000
      2      -1.6794      2.00000
      3      -0.4781      2.00000
      4      -0.4781      2.00000
      5      -0.4781      2.00000
      6      -0.4781      2.00000
      7       1.0861      2.00000
      8       1.0861      2.00000
      9       2.2441      2.00000
     10       2.2441      2.00000
     11       2.2441      2.00000
     12       2.2441      2.00000
     13       3.0107      2.00000
     14       3.0107      2.00000
     15       3.0128      2.00000
     16       3.0128      2.00000
     17       5.0230      0.00000
     18       5.0230      0.00000
     19       5.7600      0.00000
     20       5.7600      0.00000
     21       6.2100      0.00000
     22       6.2101      0.00000
     23       6.4012      0.00000
     24       6.4012      0.00000
     25       6.4040      0.00000
     26       6.4154      0.00000

 k-point    30 :       0.3750    0.2500    0.5000
  band No.  band energies     occupation 
      1      -1.1519      2.00000
      2      -1.1519      2.00000
      3      -1.1519      2.00000
      4      -1.1519      2.00000
      5      -0.5528      2.00000
      6      -0.5528      2.00000
      7       1.5961      2.00000
      8       1.5961      2.00000
      9       1.5961      2.00000
     10       1.5961      2.00000
     11       2.1731      2.00000
     12       2.1731      2.00000
     13       2.9451      2.00000
     14       2.9451      2.00000
     15       3.9957      1.27458
     16       3.9957      1.27458
     17       4.0801      0.11326
     18       4.0801      0.11326
     19       5.8303      0.00000
     20       5.8303      0.00000
     21       6.8013      0.00000
     22       6.8014      0.00000
     23       6.8022      0.00000
     24       6.8149      0.00000
     25       6.8426      0.00000
     26       6.8676      0.00000


--------------------------------------------------------------------------------------------------------


 soft charge-density along one line, spin component           1
         0         1         2         3         4         5         6         7         8         9
 total charge-density along one line

 pseudopotential strength for first ion, spin component:           1
  3.574  -0.019  -0.000   0.000   0.000  -0.000   0.000   0.000
 -0.019  -0.008  -0.000   0.000   0.000   0.000  -0.000  -0.000
 -0.000  -0.000   0.713  -0.000   0.000  -0.027  -0.000   0.000
  0.000   0.000  -0.000   0.713  -0.000  -0.000  -0.027  -0.000
  0.000   0.000   0.000  -0.000   0.713   0.000  -0.000  -0.027
 -0.000   0.000  -0.027  -0.000   0.000  -0.037   0.000  -0.000
  0.000  -0.000  -0.000  -0.027  -0.000   0.000  -0.037   0.000
  0.000  -0.000   0.000  -0.000  -0.027  -0.000   0.000  -0.037
 total augmentation occupancy for first ion, spin component:           1
  1.126  -0.042   0.000   0.000   0.000  -0.000  -0.000   0.000
 -0.042   0.003   0.000   0.000   0.000   0.000   0.000  -0.000
 -0.000  -0.000   0.741  -0.000  -0.000   0.041   0.000  -0.000
 -0.000   0.000   0.000   0.741   0.000   0.000   0.041  -0.000
  0.000  -0.000  -0.000  -0.000   0.741  -0.000  -0.000   0.041
 -0.000  -0.000   0.041   0.000  -0.000   0.002   0.000  -0.000
 -0.000   0.000  -0.000   0.041   0.000   0.000   0.002   0.000
 -0.000   0.000  -0.000  -0.000   0.041  -0.000  -0.000   0.002


------------------------ aborting loop because EDIFF is reached ----------------------------------------


    CHARGE:  cpu time    0.04: real time    0.04
    FORLOC:  cpu time    0.00: real time    0.00
    FORNL :  cpu time    0.10: real time    0.10
    STRESS:  cpu time    0.16: real time    0.16
    FORCOR:  cpu time    0.02: real time    0.02
    FORHAR:  cpu time    0.01: real time    0.01
    MIXING:  cpu time    0.00: real time    0.00
    OFIELD:  cpu time    0.00: real time    0.00

  FORCE on cell =-STRESS in cart. coord.  units (eV):
  Direction    XX          YY          ZZ          XY          YZ          ZX
  --------------------------------------------------------------------------------------
  Alpha Z   -12.08098   -12.08098   -12.08098
  Ewald    -157.37509  -157.37514  -154.01570     0.00010     0.00000    -0.00000
  Hartree     0.28922     0.28922     0.37772    -0.00000     0.00000     0.00000
  E(xc)     -73.42174   -73.42172   -73.46079     0.00000    -0.00000    -0.00000
  Local      14.41007    14.41006    11.73648    -0.00004     0.00000     0.00000
  n-local   126.96382   127.04260   127.53977    -0.86245     0.44351     0.08510
  augment     1.63868     1.63868     1.63834     0.00000    -0.00000     0.00000
  Kinetic    99.09137    99.98188    98.26535   -18.53292     0.23519    -0.83850
  Fock        0.00000     0.00000     0.00000     0.00000     0.00000     0.00000
  -------------------------------------------------------------------------------------
  Total      -0.00003    -0.00003     0.00019     0.00000     0.00000    -0.00000
  in kB      -0.00013    -0.00013     0.00083     0.00000     0.00000    -0.00000
  external pressure =        0.00 kB  Pullay stress =        0.00 kB


 VOLUME and BASIS-vectors are now :
 -----------------------------------------------------------------------------
  energy-cutoff  :      450.00
  volume of cell :      366.09
      direct lattice vectors                 reciprocal lattice vectors
     6.406954111 -0.000000026 -0.000000000     0.156080407  0.090113092  0.000000000
    -3.203480695  5.548589649  0.000000000     0.000000001  0.180225979  0.000000000
    -0.000000000  0.000000000 10.297972898     0.000000000  0.000000000  0.097106490

  length of vectors
     6.406954111  6.406959939 10.297972898     0.180226143  0.180225979  0.097106490


 FORCES acting on ions
    electron-ion (+dipol)            ewald-force                    non-local-force                 convergence-correction
 -----------------------------------------------------------------------------------------------
   -.210E-04 0.100E-04 0.440E-08   0.468E-05 0.941E-06 -.444E-15   -.249E-17 0.358E-17 -.271E-19   -.287E-08 -.328E-08 0.195E-13
   -.210E-04 0.100E-04 0.440E-08   0.468E-05 0.941E-06 0.133E-14   -.287E-17 0.163E-17 -.569E-18   -.287E-08 -.328E-08 -.204E-13
   -.210E-04 0.100E-04 0.440E-08   0.458E-05 0.520E-06 -.178E-14   0.488E-18 0.228E-17 0.596E-18   -.287E-08 -.384E-10 0.195E-13
   -.210E-04 0.100E-04 0.440E-08   0.458E-05 0.520E-06 -.888E-15   -.369E-17 0.108E-18 0.144E-17   -.287E-08 -.384E-10 -.204E-13
   -.198E-04 0.100E-04 0.440E-08   0.306E-05 0.187E-06 -.888E-15   -.347E-17 0.445E-17 -.133E-17   0.287E-08 0.368E-10 0.196E-13
   -.198E-04 0.100E-04 0.440E-08   0.306E-05 0.187E-06 0.888E-15   -.201E-17 0.401E-17 -.127E-17   0.287E-08 0.368E-10 -.204E-13
   -.198E-04 0.100E-04 0.440E-08   0.297E-05 -.233E-06 -.355E-14   -.379E-18 0.423E-17 0.217E-18   0.287E-08 0.328E-08 0.196E-13
   -.198E-04 0.100E-04 0.440E-08   0.297E-05 -.233E-06 -.178E-14   0.651E-18 0.184E-17 0.515E-18   0.287E-08 0.328E-08 -.205E-13
   0.196E-04 -.106E-04 0.440E-08   -.374E-05 0.681E-06 -.138E-14   -.206E-17 -.282E-17 0.188E-17   -.140E-08 -.412E-08 0.114E-13
   0.196E-04 -.106E-04 0.440E-08   -.374E-05 0.681E-06 0.122E-14   -.331E-17 -.412E-17 0.233E-17   -.140E-08 -.412E-08 -.125E-13
   0.190E-04 -.955E-05 0.440E-08   -.358E-05 -.110E-05 -.128E-14   -.504E-17 0.271E-17 0.989E-18   -.141E-08 0.251E-08 0.113E-13
   0.190E-04 -.955E-05 0.440E-08   -.358E-05 -.110E-05 0.132E-14   -.260E-17 -.152E-17 0.163E-18   -.141E-08 0.251E-08 -.124E-13
   0.196E-04 -.106E-04 0.440E-08   -.406E-05 0.391E-06 0.223E-14   -.976E-17 -.304E-17 0.908E-18   0.140E-08 -.250E-08 0.115E-13
   0.196E-04 -.106E-04 0.440E-08   -.406E-05 0.391E-06 0.483E-14   -.179E-17 -.846E-17 0.108E-17   0.140E-08 -.250E-08 -.126E-13
   0.190E-04 -.955E-05 0.440E-08   -.390E-05 -.139E-05 -.122E-14   -.548E-17 -.325E-18 0.827E-18   0.140E-08 0.412E-08 0.114E-13
   0.190E-04 -.955E-05 0.440E-08   -.390E-05 -.139E-05 0.227E-14   -.108E-17 -.239E-17 -.867E-18   0.140E-08 0.412E-08 -.126E-13
 -----------------------------------------------------------------------------------------------
   -.896E-05 -.491E-06 0.704E-07   -.224E-14 0.666E-15 0.888E-15   -.449E-16 0.217E-17 0.688E-17   0.241E-11 -.692E-12 -.821E-14


 POSITION                                       TOTAL-FORCE (eV/Angst)
 -----------------------------------------------------------------------------------
     -0.00000      1.84953      1.28725         0.000000     -0.000000     -0.000000
     -0.00000      1.84953      6.43623        -0.000000     -0.000000      0.000000
     -1.60174      4.62383      1.28725        -0.000000      0.000000     -0.000000
     -1.60174      4.62383      6.43623         0.000000      0.000000     -0.000000
      3.20347      1.84953      1.28725         0.000000     -0.000000      0.000000
      3.20347      1.84953      6.43623        -0.000000     -0.000000      0.000000
      1.60173      4.62383      1.28725         0.000000     -0.000000      0.000000
      1.60173      4.62383      6.43623        -0.000000      0.000000     -0.000000
      1.60174      0.92476      3.86174         0.000000     -0.000000      0.000000
      1.60174      0.92476      9.01073        -0.000000      0.000000     -0.000000
     -0.00000      3.69906      3.86174         0.000000      0.000000     -0.000000
     -0.00000      3.69906      9.01073         0.000000      0.000000      0.000000
      4.80522      0.92476      3.86174         0.000000     -0.000000      0.000000
      4.80522      0.92476      9.01073        -0.000000      0.000000      0.000000
      3.20348      3.69906      3.86174        -0.000000     -0.000000     -0.000000
      3.20348      3.69906      9.01073        -0.000000      0.000000     -0.000000
 -----------------------------------------------------------------------------------
    total drift:                               -0.000009     -0.000000      0.000000


--------------------------------------------------------------------------------------------------------



  FREE ENERGIE OF THE ION-ELECTRON SYSTEM (eV)
  ---------------------------------------------------
  free  energy   TOTEN  =       -24.36300010 eV

  energy  without entropy=      -24.34754718  energy(sigma->0) =      -24.35527364



--------------------------------------------------------------------------------------------------------


    POTLOK:  cpu time    0.02: real time    0.03


--------------------------------------------------------------------------------------------------------




--------------------------------------------------------------------------------------------------------


  
 reached required accuracy - stopping structural energy minimisation
     LOOP+:  cpu time    4.25: real time    4.39
    4ORBIT:  cpu time    0.00: real time    0.00

 total amount of memory used by VASP on root node    38005. kBytes
========================================================================

   base      :      30000. kBytes
   nonl-proj :       1436. kBytes
   fftplans  :        977. kBytes
   grid      :       1368. kBytes
   one-center:          6. kBytes
   wavefun   :       4218. kBytes

  
  
 General timing and accounting informations for this job:
 ========================================================
  
                  Total CPU time used (sec):        5.276
                            User time (sec):        5.128
                          System time (sec):        0.148
                         Elapsed time (sec):        5.567
  
                   Maximum memory used (kb):       32192.
                   Average memory used (kb):           0.
  
                          Minor page faults:         8308
                          Major page faults:            0
                 Voluntary context switches:         2173
