       N       E                     dE             d eps       ncg     rms          rms(c)
DAV:   1     0.563261399478E+03    0.56326E+03   -0.30497E+04 31176   0.122E+03
DAV:   2    -0.641888053562E+02   -0.62745E+03   -0.60484E+03 31000   0.299E+02
DAV:   3    -0.170001337023E+03   -0.10581E+03   -0.99501E+02 43512   0.104E+02
DAV:   4    -0.174854475631E+03   -0.48531E+01   -0.47865E+01 39408   0.242E+01
DAV:   5    -0.174952144739E+03   -0.97669E-01   -0.97341E-01 39428   0.354E+00    0.194E+01
RMM:   6    -0.163180847429E+03    0.11771E+02   -0.12749E+02 31114   0.410E+01    0.529E+00
RMM:   7    -0.161564770704E+03    0.16161E+01   -0.35716E+00 31042   0.744E+00    0.321E+00
RMM:   8    -0.161581817691E+03   -0.17047E-01   -0.64923E+00 31091   0.864E+00    0.278E+00
RMM:   9    -0.161165499608E+03    0.41632E+00   -0.31531E+00 31000   0.699E+00    0.709E-01
RMM:  10    -0.161139481192E+03    0.26018E-01   -0.10632E-01 31213   0.137E+00    0.299E-01
RMM:  11    -0.161135822181E+03    0.36590E-02   -0.18293E-02 31376   0.484E-01    0.106E-01
RMM:  12    -0.161135749946E+03    0.72236E-04   -0.69853E-03 31650   0.244E-01    0.343E-02
RMM:  13    -0.161135718931E+03    0.31015E-04   -0.51306E-04 31980   0.906E-02    0.374E-02
RMM:  14    -0.161135664715E+03    0.54216E-04   -0.40322E-04 31024   0.765E-02    0.423E-03
RMM:  15    -0.161135669283E+03   -0.45684E-05   -0.57106E-05 30667   0.131E-02    0.571E-03
RMM:  16    -0.161135667593E+03    0.16902E-05   -0.58446E-06 24565   0.939E-03    0.181E-03
RMM:  17    -0.161135667077E+03    0.51578E-06   -0.40925E-06 23735   0.551E-03
   1 F= -.16113567E+03 E0= -.16112625E+03  d E =-.161136E+03
       N       E                     dE             d eps       ncg     rms          rms(c)
DAV:   1    -0.161136500151E+03   -0.83256E-03   -0.26191E-02 35256   0.474E-01    0.411E-02
RMM:   2    -0.161136967312E+03   -0.46716E-03   -0.32740E-03 31108   0.202E-01    0.944E-02
RMM:   3    -0.161136614969E+03    0.35234E-03   -0.28795E-04 31004   0.611E-02    0.601E-02
RMM:   4    -0.161136491636E+03    0.12333E-03   -0.18129E-03 31086   0.144E-01    0.120E-02
RMM:   5    -0.161136494012E+03   -0.23757E-05   -0.84001E-05 31462   0.196E-02    0.152E-02
RMM:   6    -0.161136485750E+03    0.82621E-05   -0.30071E-05 31007   0.180E-02    0.540E-03
RMM:   7    -0.161136485941E+03   -0.19127E-06   -0.14727E-05 27751   0.123E-02    0.492E-04
RMM:   8    -0.161136486017E+03   -0.75778E-07   -0.67309E-07 18243   0.256E-03
   2 F= -.16113649E+03 E0= -.16112705E+03  d E =-.818940E-03
       N       E                     dE             d eps       ncg     rms          rms(c)
DAV:   1    -0.161136623684E+03   -0.13774E-03   -0.92477E-03 33940   0.282E-01    0.246E-02
RMM:   2    -0.161136615593E+03    0.80915E-05   -0.24550E-04 31004   0.604E-02    0.132E-03
RMM:   3    -0.161136617435E+03   -0.18425E-05   -0.15450E-05 32084   0.131E-02    0.200E-03
RMM:   4    -0.161136616821E+03    0.61412E-06   -0.25572E-06 21154   0.642E-03
   3 F= -.16113662E+03 E0= -.16112717E+03  d E =-.949744E-03
       N       E                     dE             d eps       ncg     rms          rms(c)
DAV:   1    -0.161136763331E+03   -0.14590E-03   -0.17436E-03 33776   0.134E-01    0.899E-03
RMM:   2    -0.161136822309E+03   -0.58978E-04   -0.54518E-04 31014   0.882E-02    0.335E-02
RMM:   3    -0.161136771176E+03    0.51134E-04   -0.35450E-04 31002   0.723E-02    0.329E-03
RMM:   4    -0.161136776054E+03   -0.48785E-05   -0.42473E-05 30685   0.147E-02    0.977E-03
RMM:   5    -0.161136771328E+03    0.47263E-05   -0.53928E-06 24573   0.672E-03    0.539E-03
RMM:   6    -0.161136769991E+03    0.13369E-05   -0.70959E-06 25599   0.886E-03    0.940E-04
RMM:   7    -0.161136769881E+03    0.10958E-06   -0.15499E-06 18505   0.386E-03
   4 F= -.16113677E+03 E0= -.16112732E+03  d E =-.153060E-03
       N       E                     dE             d eps       ncg     rms          rms(c)
DAV:   1    -0.161136935734E+03   -0.16574E-03   -0.15678E-02 33004   0.401E-01    0.271E-02
RMM:   2    -0.161136990921E+03   -0.55187E-04   -0.87631E-04 31000   0.133E-01    0.777E-03
RMM:   3    -0.161136996840E+03   -0.59186E-05   -0.92625E-05 31985   0.370E-02    0.492E-03
RMM:   4    -0.161136995181E+03    0.16583E-05   -0.11404E-05 30892   0.130E-02    0.138E-03
RMM:   5    -0.161136995381E+03   -0.19997E-06   -0.72272E-07 18709   0.335E-03
   5 F= -.16113700E+03 E0= -.16112754E+03  d E =-.378560E-03
       N       E                     dE             d eps       ncg     rms          rms(c)
DAV:   1    -0.161136997815E+03   -0.26333E-05   -0.26777E-04 35004   0.523E-02    0.338E-03
RMM:   2    -0.161136998713E+03   -0.89810E-06   -0.13418E-05 30928   0.168E-02    0.284E-04
RMM:   3    -0.161136998852E+03   -0.13936E-06   -0.74014E-07 17337   0.372E-03    0.160E-04
RMM:   4    -0.161136998889E+03   -0.37000E-07   -0.21257E-07 16575   0.213E-03
   6 F= -.16113700E+03 E0= -.16112755E+03  d E =-.382068E-03
       N       E                     dE             d eps       ncg     rms          rms(c)
DAV:   1    -0.161136998860E+03   -0.81279E-08   -0.17070E-07 21726   0.169E-03    0.222E-04
RMM:   2    -0.161136998858E+03    0.18500E-08   -0.45121E-08 11878   0.120E-03    0.106E-04
RMM:   3    -0.161136998881E+03   -0.22373E-07   -0.44350E-09  3191   0.627E-04    0.556E-05
RMM:   4    -0.161136998901E+03   -0.20507E-07   -0.55338E-09  4012   0.602E-04
   7 F= -.16113700E+03 E0= -.16112755E+03  d E =-.382080E-03
       N       E                     dE             d eps       ncg     rms          rms(c)
DAV:   1    -0.161136998909E+03   -0.27936E-07   -0.23662E-07 19202   0.156E-03    0.215E-04
RMM:   2    -0.161136998906E+03    0.26408E-08   -0.15151E-08  5394   0.867E-04    0.106E-04
RMM:   3    -0.161136998902E+03    0.38174E-08   -0.59799E-09  2593   0.723E-04    0.664E-05
RMM:   4    -0.161136998885E+03    0.17347E-07   -0.62105E-09  2577   0.688E-04
   8 F= -.16113700E+03 E0= -.16112755E+03  d E =-.382064E-03
       N       E                     dE             d eps       ncg     rms          rms(c)
DAV:   1    -0.161136998881E+03    0.21018E-07   -0.43253E-08 18542   0.716E-04    0.154E-04
RMM:   2    -0.161136998898E+03   -0.16394E-07   -0.13396E-09  2226   0.627E-04    0.660E-05
RMM:   3    -0.161136998897E+03    0.59663E-09   -0.69361E-09  3433   0.753E-04    0.334E-05
RMM:   4    -0.161136998896E+03    0.11508E-08    0.00000E+00   689   0.647E-04
   9 F= -.16113700E+03 E0= -.16112755E+03  d E =-.382075E-03
       N       E                     dE             d eps       ncg     rms          rms(c)
DAV:   1    -0.161136998898E+03   -0.12300E-08   -0.44302E-08 17990   0.795E-04    0.156E-04
RMM:   2    -0.161136998892E+03    0.62690E-08   -0.66685E-09  4008   0.711E-04    0.282E-05
RMM:   3    -0.161136998894E+03   -0.23691E-08   -0.11942E-09  1183   0.560E-04    0.146E-05
RMM:   4    -0.161136998899E+03   -0.45450E-08   -0.52104E-10   811   0.545E-04
  10 F= -.16113700E+03 E0= -.16112755E+03  d E =-.382078E-03
       N       E                     dE             d eps       ncg     rms          rms(c)
DAV:   1    -0.161136999058E+03   -0.16416E-06   -0.73612E-06 31568   0.832E-03    0.532E-04
RMM:   2    -0.161136999472E+03   -0.41335E-06   -0.42590E-07 15708   0.286E-03    0.770E-04
RMM:   3    -0.161137000227E+03   -0.75513E-06   -0.20741E-06 18072   0.491E-03    0.302E-03
RMM:   4    -0.161136999331E+03    0.89640E-06   -0.22084E-06 18393   0.767E-03
  11 F= -.16113700E+03 E0= -.16112755E+03  d E =-.431693E-06
       N       E                     dE             d eps       ncg     rms          rms(c)
DAV:   1    -0.161136999072E+03    0.11550E-05   -0.19098E-06 22584   0.393E-03    0.119E-03
RMM:   2    -0.161136999098E+03   -0.26244E-07   -0.20798E-07 15638   0.202E-03    0.904E-04
RMM:   3    -0.161136999106E+03   -0.74555E-08   -0.71465E-08  9982   0.116E-03    0.346E-04
RMM:   4    -0.161136999092E+03    0.13702E-07   -0.28268E-08  6212   0.848E-04
  12 F= -.16113700E+03 E0= -.16112755E+03  d E =-.193073E-06
       N       E                     dE             d eps       ncg     rms          rms(c)
DAV:   1    -0.161136999123E+03   -0.17188E-07   -0.96996E-08 17600   0.832E-04    0.268E-04
RMM:   2    -0.161136999095E+03    0.27411E-07   -0.29580E-08  8689   0.929E-04    0.910E-05
RMM:   3    -0.161136999093E+03    0.20966E-08   -0.62211E-09  2178   0.636E-04    0.116E-04
RMM:   4    -0.161136999095E+03   -0.13126E-08   -0.20731E-11   476   0.479E-04
  13 F= -.16113700E+03 E0= -.16112755E+03  d E =-.195768E-06
