AlO                                     
           1
     4.810753   -0.024054    0.000000
    -0.041393    8.278566    0.000000
     0.000000    0.000000    8.479598
   Ti   Si
   8  16
Direct configuration=     1
   0.00000000  0.00000000  0.00000000
   0.75000000  0.75000000  0.25000000
   0.00000000  0.50000000  0.50000000
   0.75000000  0.25000000  0.75000000
   0.50000000  0.00000000  0.50000000
   0.25000000  0.75000000  0.75000000
   0.50000000  0.50000000  0.00000000
   0.25000000  0.25000000  0.25000000
   0.00000000  0.33673444  0.00000000
   0.00000000  0.66326559  0.00000000
   0.75000000  0.08673443  0.25000000
   0.75000000  0.41326556  0.25000000
   0.00000000  0.83673441  0.50000000
   0.00000000  0.16326557  0.50000000
   0.75000000  0.58673441  0.75000000
   0.75000000  0.91326559  0.75000000
   0.50000000  0.33673444  0.50000000
   0.50000000  0.66326559  0.50000000
   0.25000000  0.08673443  0.75000000
   0.25000000  0.41326556  0.75000000
   0.50000000  0.83673441  0.00000000
   0.50000000  0.16326557  0.00000000
   0.25000000  0.58673441  0.25000000
   0.25000000  0.91326559  0.25000000
Direct configuration=     2
  -0.00000000 -0.00000000  0.00020248
   0.75000000  0.75000000  0.24979752
  -0.00000000  0.50000000  0.50020248
   0.75000000  0.25000000  0.74979752
   0.50000000 -0.00000000  0.50020248
   0.25000000  0.75000000  0.74979752
   0.50000000  0.50000000  0.00020248
   0.25000000  0.25000000  0.24979752
   0.00000970  0.33667266  0.00007682
  -0.00000970  0.66332737  0.00007682
   0.75000970  0.08667264  0.24992318
   0.74999030  0.41332734  0.24992318
   0.00000970  0.83667263  0.50007682
  -0.00000970  0.16332736  0.50007682
   0.75000970  0.58667263  0.74992318
   0.74999030  0.91332737  0.74992318
   0.50000970  0.33667266  0.50007682
   0.49999030  0.66332737  0.50007682
   0.25000970  0.08667264  0.74992318
   0.24999030  0.41332734  0.74992318
   0.50000970  0.83667263  0.00007682
   0.49999030  0.16332736  0.00007682
   0.25000970  0.58667263  0.24992318
   0.24999030  0.91332737  0.24992318
Direct configuration=     3
  -0.00000000 -0.00000000  0.00032277
   0.75000000  0.75000000  0.24967723
  -0.00000000  0.50000000  0.50032277
   0.75000000  0.25000000  0.74967723
   0.50000000 -0.00000000  0.50032277
   0.25000000  0.75000000  0.74967723
   0.50000000  0.50000000  0.00032277
   0.25000000  0.25000000  0.24967723
   0.00001546  0.33663595  0.00012246
  -0.00001546  0.66336408  0.00012246
   0.75001546  0.08663594  0.24987754
   0.74998454  0.41336405  0.24987754
   0.00001546  0.83663592  0.50012246
  -0.00001546  0.16336406  0.50012246
   0.75001546  0.58663592  0.74987754
   0.74998454  0.91336408  0.74987754
   0.50001546  0.33663595  0.50012246
   0.49998454  0.66336408  0.50012246
   0.25001546  0.08663594  0.74987754
   0.24998454  0.41336405  0.74987754
   0.50001546  0.83663592  0.00012246
   0.49998454  0.16336406  0.00012246
   0.25001546  0.58663592  0.24987754
   0.24998454  0.91336408  0.24987754
Direct configuration=     4
   0.00000000 -0.00000000  0.00035409
   0.75000000  0.75000000  0.24964591
   0.00000000  0.50000000  0.50035409
   0.75000000  0.25000000  0.74964591
   0.50000000 -0.00000000  0.50035409
   0.25000000  0.75000000  0.74964591
   0.50000000  0.50000000  0.00035409
   0.25000000  0.25000000  0.24964591
  -0.00003623  0.33657649  0.00009434
   0.00003623  0.66342354  0.00009434
   0.74996377  0.08657647  0.24990566
   0.75003623  0.41342351  0.24990566
  -0.00003623  0.83657646  0.50009434
   0.00003623  0.16342353  0.50009434
   0.74996377  0.58657646  0.74990566
   0.75003623  0.91342354  0.74990566
   0.49996377  0.33657649  0.50009434
   0.50003623  0.66342354  0.50009434
   0.24996377  0.08657647  0.74990566
   0.25003623  0.41342351  0.74990566
   0.49996377  0.83657646  0.00009434
   0.50003623  0.16342353  0.00009434
   0.24996377  0.58657646  0.24990566
   0.25003623  0.91342354  0.24990566
Direct configuration=     5
   0.00000000 -0.00000000  0.00044807
   0.75000000  0.75000000  0.24955193
   0.00000000  0.50000000  0.50044807
   0.75000000  0.25000000  0.74955193
   0.50000000 -0.00000000  0.50044807
   0.25000000  0.75000000  0.74955193
   0.50000000  0.50000000  0.00044807
   0.25000000  0.25000000  0.24955193
  -0.00019133  0.33639809  0.00000998
   0.00019133  0.66360194  0.00000998
   0.74980867  0.08639807  0.24999002
   0.75019133  0.41360191  0.24999002
  -0.00019133  0.83639806  0.50000998
   0.00019133  0.16360193  0.50000998
   0.74980867  0.58639806  0.74999002
   0.75019133  0.91360194  0.74999002
   0.49980867  0.33639809  0.50000998
   0.50019133  0.66360194  0.50000998
   0.24980867  0.08639807  0.74999002
   0.25019133  0.41360191  0.74999002
   0.49980867  0.83639806  0.00000998
   0.50019133  0.16360193  0.00000998
   0.24980867  0.58639806  0.24999002
   0.25019133  0.91360194  0.24999002
Direct configuration=     6
   0.00000000 -0.00000000  0.00046039
   0.75000000  0.75000000  0.24953961
   0.00000000  0.50000000  0.50046039
   0.75000000  0.25000000  0.74953961
   0.50000000 -0.00000000  0.50046039
   0.25000000  0.75000000  0.74953961
   0.50000000  0.50000000  0.00046039
   0.25000000  0.25000000  0.24953961
  -0.00021166  0.33637470 -0.00000108
   0.00021166  0.66362533 -0.00000108
   0.74978834  0.08637469  0.25000108
   0.75021166  0.41362530  0.25000108
  -0.00021166  0.83637467  0.49999892
   0.00021166  0.16362531  0.49999892
   0.74978834  0.58637467  0.75000108
   0.75021166  0.91362533  0.75000108
   0.49978834  0.33637470  0.49999892
   0.50021166  0.66362533  0.49999892
   0.24978834  0.08637469  0.75000108
   0.25021166  0.41362530  0.75000108
   0.49978834  0.83637467 -0.00000108
   0.50021166  0.16362531 -0.00000108
   0.24978834  0.58637467  0.25000108
   0.25021166  0.91362533  0.25000108
Direct configuration=     7
   0.00000000 -0.00000000  0.00046056
   0.75000000  0.75000000  0.24953944
   0.00000000  0.50000000  0.50046056
   0.75000000  0.25000000  0.74953944
   0.50000000 -0.00000000  0.50046056
   0.25000000  0.75000000  0.74953944
   0.50000000  0.50000000  0.00046056
   0.25000000  0.25000000  0.24953944
  -0.00021193  0.33637439 -0.00000123
   0.00021193  0.66362564 -0.00000123
   0.74978807  0.08637437  0.25000123
   0.75021193  0.41362561  0.25000123
  -0.00021193  0.83637436  0.49999877
   0.00021193  0.16362563  0.49999877
   0.74978807  0.58637436  0.75000123
   0.75021193  0.91362564  0.75000123
   0.49978807  0.33637439  0.49999877
   0.50021193  0.66362564  0.49999877
   0.24978807  0.08637437  0.75000123
   0.25021193  0.41362561  0.75000123
   0.49978807  0.83637436 -0.00000123
   0.50021193  0.16362563 -0.00000123
   0.24978807  0.58637436  0.25000123
   0.25021193  0.91362564  0.25000123
Direct configuration=     8
   0.00000000 -0.00000000  0.00046089
   0.75000000  0.75000000  0.24953911
   0.00000000  0.50000000  0.50046089
   0.75000000  0.25000000  0.74953911
   0.50000000 -0.00000000  0.50046089
   0.25000000  0.75000000  0.74953911
   0.50000000  0.50000000  0.00046089
   0.25000000  0.25000000  0.24953911
  -0.00021248  0.33637375 -0.00000153
   0.00021248  0.66362628 -0.00000153
   0.74978752  0.08637374  0.25000153
   0.75021248  0.41362625  0.25000153
  -0.00021248  0.83637372  0.49999847
   0.00021248  0.16362626  0.49999847
   0.74978752  0.58637372  0.75000153
   0.75021248  0.91362628  0.75000153
   0.49978752  0.33637375  0.49999847
   0.50021248  0.66362628  0.49999847
   0.24978752  0.08637374  0.75000153
   0.25021248  0.41362625  0.75000153
   0.49978752  0.83637372 -0.00000153
   0.50021248  0.16362626 -0.00000153
   0.24978752  0.58637372  0.25000153
   0.25021248  0.91362628  0.25000153
Direct configuration=     9
   0.00000000 -0.00000000  0.00046094
   0.75000000  0.75000000  0.24953906
   0.00000000  0.50000000  0.50046094
   0.75000000  0.25000000  0.74953906
   0.50000000 -0.00000000  0.50046094
   0.25000000  0.75000000  0.74953906
   0.50000000  0.50000000  0.00046094
   0.25000000  0.25000000  0.24953906
  -0.00021257  0.33637365 -0.00000158
   0.00021257  0.66362638 -0.00000158
   0.74978743  0.08637364  0.25000158
   0.75021257  0.41362635  0.25000158
  -0.00021257  0.83637362  0.49999842
   0.00021257  0.16362636  0.49999842
   0.74978743  0.58637362  0.75000158
   0.75021257  0.91362638  0.75000158
   0.49978743  0.33637365  0.49999842
   0.50021257  0.66362638  0.49999842
   0.24978743  0.08637364  0.75000158
   0.25021257  0.41362635  0.75000158
   0.49978743  0.83637362 -0.00000158
   0.50021257  0.16362636 -0.00000158
   0.24978743  0.58637362  0.25000158
   0.25021257  0.91362638  0.25000158
Direct configuration=    10
   0.00000000 -0.00000000  0.00046105
   0.75000000  0.75000000  0.24953895
   0.00000000  0.50000000  0.50046105
   0.75000000  0.25000000  0.74953895
   0.50000000 -0.00000000  0.50046105
   0.25000000  0.75000000  0.74953895
   0.50000000  0.50000000  0.00046105
   0.25000000  0.25000000  0.24953895
  -0.00021273  0.33637346 -0.00000167
   0.00021273  0.66362657 -0.00000167
   0.74978727  0.08637345  0.25000167
   0.75021273  0.41362654  0.25000167
  -0.00021273  0.83637343  0.49999833
   0.00021273  0.16362655  0.49999833
   0.74978727  0.58637343  0.75000167
   0.75021273  0.91362657  0.75000167
   0.49978727  0.33637346  0.49999833
   0.50021273  0.66362657  0.49999833
   0.24978727  0.08637345  0.75000167
   0.25021273  0.41362654  0.75000167
   0.49978727  0.83637343 -0.00000167
   0.50021273  0.16362655 -0.00000167
   0.24978727  0.58637343  0.25000167
   0.25021273  0.91362657  0.25000167
Direct configuration=    11
   0.00000000 -0.00000000  0.00045855
   0.75000000  0.75000000  0.24954145
   0.00000000  0.50000000  0.50045855
   0.75000000  0.25000000  0.74954145
   0.50000000 -0.00000000  0.50045855
   0.25000000  0.75000000  0.74954145
   0.50000000  0.50000000  0.00045855
   0.25000000  0.25000000  0.24954145
  -0.00021687  0.33637284  0.00000058
   0.00021687  0.66362719  0.00000058
   0.74978313  0.08637283  0.24999942
   0.75021687  0.41362716  0.24999942
  -0.00021687  0.83637281  0.50000058
   0.00021687  0.16362717  0.50000058
   0.74978313  0.58637281  0.74999942
   0.75021687  0.91362719  0.74999942
   0.49978313  0.33637284  0.50000058
   0.50021687  0.66362719  0.50000058
   0.24978313  0.08637283  0.74999942
   0.25021687  0.41362716  0.74999942
   0.49978313  0.83637281  0.00000058
   0.50021687  0.16362717  0.00000058
   0.24978313  0.58637281  0.24999942
   0.25021687  0.91362719  0.24999942
Direct configuration=    12
   0.00000000 -0.00000000  0.00045756
   0.75000000  0.75000000  0.24954244
   0.00000000  0.50000000  0.50045756
   0.75000000  0.25000000  0.74954244
   0.50000000 -0.00000000  0.50045756
   0.25000000  0.75000000  0.74954244
   0.50000000  0.50000000  0.00045756
   0.25000000  0.25000000  0.24954244
  -0.00021850  0.33637260  0.00000147
   0.00021850  0.66362743  0.00000147
   0.74978150  0.08637258  0.24999853
   0.75021850  0.41362740  0.24999853
  -0.00021850  0.83637257  0.50000147
   0.00021850  0.16362742  0.50000147
   0.74978150  0.58637257  0.74999853
   0.75021850  0.91362743  0.74999853
   0.49978150  0.33637260  0.50000147
   0.50021850  0.66362743  0.50000147
   0.24978150  0.08637258  0.74999853
   0.25021850  0.41362740  0.74999853
   0.49978150  0.83637257  0.00000147
   0.50021850  0.16362742  0.00000147
   0.24978150  0.58637257  0.24999853
   0.25021850  0.91362743  0.24999853
Direct configuration=    13
   0.00000000 -0.00000000  0.00045759
   0.75000000  0.75000000  0.24954241
   0.00000000  0.50000000  0.50045759
   0.75000000  0.25000000  0.74954241
   0.50000000 -0.00000000  0.50045759
   0.25000000  0.75000000  0.74954241
   0.50000000  0.50000000  0.00045759
   0.25000000  0.25000000  0.24954241
  -0.00021844  0.33637261  0.00000144
   0.00021844  0.66362742  0.00000144
   0.74978156  0.08637259  0.24999856
   0.75021844  0.41362739  0.24999856
  -0.00021844  0.83637258  0.50000144
   0.00021844  0.16362741  0.50000144
   0.74978156  0.58637258  0.74999856
   0.75021844  0.91362742  0.74999856
   0.49978156  0.33637261  0.50000144
   0.50021844  0.66362742  0.50000144
   0.24978156  0.08637259  0.74999856
   0.25021844  0.41362739  0.74999856
   0.49978156  0.83637258  0.00000144
   0.50021844  0.16362741  0.00000144
   0.24978156  0.58637258  0.24999856
   0.25021844  0.91362742  0.24999856
