       N       E                     dE             d eps       ncg     rms          rms(c)
DAV:   1     0.930051399924E+03    0.93005E+03   -0.54061E+04 30576   0.175E+03
DAV:   2     0.111604031556E+01   -0.92894E+03   -0.89836E+03 30576   0.400E+02
DAV:   3    -0.923280819282E+02   -0.93444E+02   -0.88747E+02 31980   0.148E+02
DAV:   4    -0.958593801797E+02   -0.35313E+01   -0.34688E+01 35976   0.282E+01
DAV:   5    -0.959522027564E+02   -0.92823E-01   -0.92585E-01 37060   0.395E+00    0.342E+01
RMM:   6    -0.103710681201E+03   -0.77585E+01   -0.42861E+02 30627   0.123E+02    0.252E+01
RMM:   7    -0.790421270483E+02    0.24669E+02   -0.92188E+01 30576   0.617E+01    0.281E+00
RMM:   8    -0.791002785170E+02   -0.58151E-01   -0.93055E+00 30576   0.158E+01    0.461E+00
RMM:   9    -0.786700222982E+02    0.43026E+00   -0.98955E-01 30577   0.630E+00    0.573E-01
RMM:  10    -0.786641962547E+02    0.58260E-02   -0.30652E-02 30581   0.753E-01    0.328E-01
RMM:  11    -0.786614190761E+02    0.27772E-02   -0.20054E-02 30576   0.602E-01    0.736E-02
RMM:  12    -0.786613748074E+02    0.44269E-04   -0.53394E-04 30577   0.947E-02    0.503E-02
RMM:  13    -0.786613522324E+02    0.22575E-04   -0.18876E-04 30571   0.738E-02    0.244E-02
RMM:  14    -0.786613368006E+02    0.15432E-04   -0.31821E-05 19916   0.348E-02    0.528E-03
RMM:  15    -0.786613371396E+02   -0.33903E-06   -0.52030E-06 17206   0.122E-02
   1 F= -.78661337E+02 E0= -.78656845E+02  d E =-.786613E+02
       N       E                     dE             d eps       ncg     rms          rms(c)
DAV:   1    -0.786616809676E+02   -0.34417E-03   -0.38137E-02 32772   0.714E-01    0.174E-02
RMM:   2    -0.786616842386E+02   -0.32710E-05   -0.91847E-05 30207   0.634E-02    0.140E-02
RMM:   3    -0.786616772433E+02    0.69953E-05   -0.27005E-05 17120   0.288E-02    0.585E-03
RMM:   4    -0.786616772344E+02    0.88397E-08   -0.64828E-06 16072   0.187E-02
   2 F= -.78661677E+02 E0= -.78657186E+02  d E =-.340095E-03
       N       E                     dE             d eps       ncg     rms          rms(c)
DAV:   1    -0.786623531670E+02   -0.67592E-03   -0.34326E-01 31424   0.214E+00    0.523E-02
RMM:   2    -0.786623189289E+02    0.34238E-04   -0.69394E-04 30576   0.177E-01    0.141E-02
RMM:   3    -0.786623155519E+02    0.33770E-05   -0.47333E-05 24095   0.390E-02    0.310E-03
RMM:   4    -0.786623159862E+02   -0.43423E-06   -0.52190E-06 16561   0.137E-02
   3 F= -.78662316E+02 E0= -.78657826E+02  d E =-.978847E-03
       N       E                     dE             d eps       ncg     rms          rms(c)
DAV:   1    -0.786620266832E+02    0.28887E-03   -0.13735E+00 30752   0.429E+00    0.104E-01
RMM:   2    -0.786618751747E+02    0.15151E-03   -0.27193E-03 30576   0.351E-01    0.645E-03
RMM:   3    -0.786618844305E+02   -0.92558E-05   -0.10604E-04 29997   0.471E-02    0.523E-03
RMM:   4    -0.786618843133E+02    0.11712E-06   -0.68322E-06 17259   0.159E-02
   4 F= -.78661884E+02 E0= -.78657397E+02  d E =-.547174E-03
       N       E                     dE             d eps       ncg     rms          rms(c)
DAV:   1    -0.786625004347E+02   -0.61600E-03   -0.68159E-01 30704   0.302E+00    0.741E-02
RMM:   2    -0.786624240530E+02    0.76382E-04   -0.13761E-03 30576   0.252E-01    0.889E-03
RMM:   3    -0.786624261543E+02   -0.21012E-05   -0.47283E-05 23358   0.338E-02    0.310E-03
RMM:   4    -0.786624267977E+02   -0.64339E-06   -0.50927E-06 16752   0.144E-02
   5 F= -.78662427E+02 E0= -.78657938E+02  d E =-.108966E-02
       N       E                     dE             d eps       ncg     rms          rms(c)
DAV:   1    -0.786626581969E+02   -0.23204E-03   -0.27535E-02 31188   0.621E-01    0.155E-02
RMM:   2    -0.786626923118E+02   -0.34115E-04   -0.25048E-04 30576   0.999E-02    0.332E-02
RMM:   3    -0.786626777934E+02    0.14518E-04   -0.21627E-05 17041   0.255E-02    0.229E-02
RMM:   4    -0.786626642245E+02    0.13569E-04   -0.35150E-05 19898   0.330E-02    0.497E-03
RMM:   5    -0.786626646662E+02   -0.44172E-06   -0.36893E-06 15786   0.824E-03
   6 F= -.78662665E+02 E0= -.78658174E+02  d E =-.237869E-03
       N       E                     dE             d eps       ncg     rms          rms(c)
DAV:   1    -0.786627609066E+02   -0.96682E-04   -0.38324E-02 30820   0.732E-01    0.185E-02
RMM:   2    -0.786627695919E+02   -0.86853E-05   -0.22202E-04 30569   0.946E-02    0.473E-03
RMM:   3    -0.786627709578E+02   -0.13659E-05   -0.94308E-06 16952   0.146E-02    0.744E-03
RMM:   4    -0.786627703310E+02    0.62673E-06   -0.54772E-06 16247   0.156E-02
   7 F= -.78662770E+02 E0= -.78658278E+02  d E =-.343533E-03
       N       E                     dE             d eps       ncg     rms          rms(c)
DAV:   1    -0.786627952730E+02   -0.24315E-04   -0.67464E-03 31820   0.301E-01    0.744E-03
RMM:   2    -0.786627979364E+02   -0.26634E-05   -0.22197E-05 16341   0.321E-02    0.101E-02
RMM:   3    -0.786627955061E+02    0.24303E-05   -0.52451E-06 15627   0.147E-02    0.453E-03
RMM:   4    -0.786627949303E+02    0.57576E-06   -0.89353E-07 15508   0.512E-03
   8 F= -.78662795E+02 E0= -.78658302E+02  d E =-.245993E-04
       N       E                     dE             d eps       ncg     rms          rms(c)
DAV:   1    -0.786628096986E+02   -0.14193E-04   -0.13329E-02 30772   0.423E-01    0.104E-02
RMM:   2    -0.786628085358E+02    0.11628E-05   -0.32095E-05 19231   0.386E-02    0.228E-03
RMM:   3    -0.786628089647E+02   -0.42892E-06   -0.38338E-06 15661   0.112E-02    0.217E-03
RMM:   4    -0.786628090498E+02   -0.85063E-07   -0.10343E-06 15512   0.684E-03
   9 F= -.78662809E+02 E0= -.78658315E+02  d E =-.387187E-04
       N       E                     dE             d eps       ncg     rms          rms(c)
DAV:   1    -0.786628118448E+02   -0.28801E-05   -0.82702E-04 31908   0.106E-01    0.256E-03
RMM:   2    -0.786628123899E+02   -0.54514E-06   -0.24476E-06 15515   0.107E-02    0.221E-03
RMM:   3    -0.786628120814E+02    0.30851E-06   -0.87860E-07 15204   0.509E-03    0.101E-03
RMM:   4    -0.786628119304E+02    0.15100E-06   -0.25445E-07 13812   0.353E-03
  10 F= -.78662812E+02 E0= -.78658319E+02  d E =-.288067E-05
       N       E                     dE             d eps       ncg     rms          rms(c)
DAV:   1    -0.786628133911E+02   -0.13097E-05   -0.19493E-03 30784   0.163E-01    0.392E-03
RMM:   2    -0.786628133340E+02    0.57169E-07   -0.51475E-06 15450   0.152E-02    0.163E-03
RMM:   3    -0.786628133874E+02   -0.53484E-07   -0.63015E-07 15187   0.446E-03    0.884E-04
RMM:   4    -0.786628134068E+02   -0.19398E-07   -0.61251E-08  4908   0.224E-03
  11 F= -.78662813E+02 E0= -.78658322E+02  d E =-.435708E-05
