AlCu                                    
           1
    12.119816    0.000000    0.069167
     0.000000    4.104732    0.000000
    -3.945287    0.000000    5.664990
   Al   Cu
  10  10
Direct configuration=     1
   0.50000000  0.00000000  0.50000000
   0.15587366  0.00000000  0.46137374
   0.84412632  0.00000000  0.53862623
   0.87805559  0.50000000  0.99541334
   0.12194440  0.50000000  0.00458663
   0.00000000  0.50000000  0.50000000
   0.65587368  0.50000000  0.46137374
   0.34412635  0.50000000  0.53862623
   0.37805559  0.00000000  0.99541334
   0.62194441  0.00000000  0.00458663
   0.00000000  0.00000000  0.00000000
   0.25805145  0.00000000  0.24172886
   0.74194852  0.00000000  0.75827112
   0.10866387  0.00000000  0.77167894
   0.89133614  0.00000000  0.22832103
   0.50000000  0.50000000  0.00000000
   0.75805148  0.50000000  0.24172886
   0.24194855  0.50000000  0.75827112
   0.60866386  0.50000000  0.77167894
   0.39133614  0.50000000  0.22832103
Direct configuration=     2
   0.50000000 -0.00000000  0.50000000
   0.15585673 -0.00000000  0.46135435
   0.84414326  0.00000000  0.53864562
   0.87799798  0.50000000  0.99525449
   0.12200201  0.50000000  0.00474549
  -0.00000000  0.50000000  0.50000000
   0.65585674  0.50000000  0.46135435
   0.34414329  0.50000000  0.53864562
   0.37799798 -0.00000000  0.99525449
   0.62200202 -0.00000000  0.00474549
  -0.00000000 -0.00000000 -0.00000000
   0.25815055 -0.00000000  0.24170066
   0.74184942 -0.00000000  0.75829932
   0.10863451 -0.00000000  0.77163994
   0.89136551  0.00000000  0.22836003
   0.50000000  0.50000000 -0.00000000
   0.75815058  0.50000000  0.24170066
   0.24184945  0.50000000  0.75829932
   0.60863449  0.50000000  0.77163994
   0.39136551  0.50000000  0.22836003
Direct configuration=     3
   0.50000000 -0.00000000  0.50000000
   0.15580593 -0.00000000  0.46129618
   0.84419406  0.00000000  0.53870379
   0.87782514  0.50000000  0.99477791
   0.12217485  0.50000000  0.00522206
  -0.00000000  0.50000000  0.50000000
   0.65580594  0.50000000  0.46129618
   0.34419409  0.50000000  0.53870379
   0.37782514 -0.00000000  0.99477791
   0.62217486 -0.00000000  0.00522206
  -0.00000000 -0.00000000 -0.00000000
   0.25844784 -0.00000000  0.24161605
   0.74155213 -0.00000000  0.75838394
   0.10854642 -0.00000000  0.77152294
   0.89145360  0.00000000  0.22847703
   0.50000000  0.50000000 -0.00000000
   0.75844787  0.50000000  0.24161605
   0.24155216  0.50000000  0.75838394
   0.60854640  0.50000000  0.77152294
   0.39145360  0.50000000  0.22847703
Direct configuration=     4
   0.50000000 -0.00000000  0.50000000
   0.15570433 -0.00000000  0.46117985
   0.84429565  0.00000000  0.53882012
   0.87747947  0.50000000  0.99382476
   0.12252053  0.50000000  0.00617521
  -0.00000000  0.50000000  0.50000000
   0.65570435  0.50000000  0.46117985
   0.34429568  0.50000000  0.53882012
   0.37747947 -0.00000000  0.99382476
   0.62252053 -0.00000000  0.00617521
  -0.00000000 -0.00000000 -0.00000000
   0.25904243 -0.00000000  0.24144683
   0.74095754 -0.00000000  0.75855316
   0.10837024 -0.00000000  0.77128895
   0.89162977  0.00000000  0.22871102
   0.50000000  0.50000000 -0.00000000
   0.75904246  0.50000000  0.24144683
   0.24095757  0.50000000  0.75855316
   0.60837023  0.50000000  0.77128895
   0.39162977  0.50000000  0.22871102
Direct configuration=     5
   0.50000000 -0.00000000  0.50000000
   0.15577592 -0.00000000  0.46126182
   0.84422406  0.00000000  0.53873815
   0.87772304  0.50000000  0.99449638
   0.12227695  0.50000000  0.00550359
  -0.00000000  0.50000000  0.50000000
   0.65577594  0.50000000  0.46126182
   0.34422409  0.50000000  0.53873815
   0.37772304 -0.00000000  0.99449638
   0.62227696 -0.00000000  0.00550359
  -0.00000000 -0.00000000 -0.00000000
   0.25862347 -0.00000000  0.24156607
   0.74137650 -0.00000000  0.75843392
   0.10849438 -0.00000000  0.77145383
   0.89150563  0.00000000  0.22854614
   0.50000000  0.50000000 -0.00000000
   0.75862350  0.50000000  0.24156607
   0.24137653  0.50000000  0.75843392
   0.60849437  0.50000000  0.77145383
   0.39150563  0.50000000  0.22854614
Direct configuration=     6
   0.50000000  0.00000000  0.50000000
   0.15580958  0.00000000  0.46109584
   0.84419040  0.00000000  0.53890413
   0.87763191  0.50000000  0.99420614
   0.12236808  0.50000000  0.00579384
  -0.00000000  0.50000000  0.50000000
   0.65580960  0.50000000  0.46109584
   0.34419043  0.50000000  0.53890413
   0.37763191 -0.00000000  0.99420614
   0.62236809 -0.00000000  0.00579384
  -0.00000000 -0.00000000 -0.00000000
   0.25863418 -0.00000000  0.24151135
   0.74136579 -0.00000000  0.75848863
   0.10840843 -0.00000000  0.77144868
   0.89159159  0.00000000  0.22855129
   0.50000000  0.50000000 -0.00000000
   0.75863421  0.50000000  0.24151135
   0.24136582  0.50000000  0.75848863
   0.60840841  0.50000000  0.77144868
   0.39159159  0.50000000  0.22855129
Direct configuration=     7
   0.50000000  0.00000000  0.50000000
   0.15584927  0.00000000  0.46090014
   0.84415072  0.00000000  0.53909983
   0.87752447  0.50000000  0.99386393
   0.12247553  0.50000000  0.00613604
  -0.00000000  0.50000000  0.50000000
   0.65584928  0.50000000  0.46090014
   0.34415075  0.50000000  0.53909983
   0.37752447  0.00000000  0.99386393
   0.62247553 -0.00000000  0.00613604
  -0.00000000  0.00000000 -0.00000000
   0.25864681  0.00000000  0.24144684
   0.74135316  0.00000000  0.75855315
   0.10830709 -0.00000000  0.77144261
   0.89169293  0.00000000  0.22855736
   0.50000000  0.50000000 -0.00000000
   0.75864684  0.50000000  0.24144684
   0.24135319  0.50000000  0.75855315
   0.60830707  0.50000000  0.77144261
   0.39169293  0.50000000  0.22855736
Direct configuration=     8
   0.50000000 -0.00000000  0.50000000
   0.15584454  0.00000000  0.46092793
   0.84415544 -0.00000000  0.53907204
   0.87749439  0.50000000  0.99378350
   0.12250560  0.50000000  0.00621648
  -0.00000000  0.50000000  0.50000000
   0.65584456  0.50000000  0.46092793
   0.34415547  0.50000000  0.53907204
   0.37749439 -0.00000000  0.99378350
   0.62250561 -0.00000000  0.00621648
  -0.00000000 -0.00000000 -0.00000000
   0.25862678  0.00000000  0.24144158
   0.74137319  0.00000000  0.75855840
   0.10826003 -0.00000000  0.77136431
   0.89173998  0.00000000  0.22863566
   0.50000000  0.50000000 -0.00000000
   0.75862681  0.50000000  0.24144158
   0.24137322  0.50000000  0.75855840
   0.60826002  0.50000000  0.77136431
   0.39173998  0.50000000  0.22863566
Direct configuration=     9
   0.50000000 -0.00000000  0.50000000
   0.15583791  0.00000000  0.46096698
   0.84416208 -0.00000000  0.53903299
   0.87745213  0.50000000  0.99367046
   0.12254786  0.50000000  0.00632951
  -0.00000000  0.50000000  0.50000000
   0.65583792  0.50000000  0.46096698
   0.34416211  0.50000000  0.53903299
   0.37745213 -0.00000000  0.99367046
   0.62254787 -0.00000000  0.00632951
  -0.00000000 -0.00000000 -0.00000000
   0.25859863  0.00000000  0.24143420
   0.74140134  0.00000000  0.75856578
   0.10819390 -0.00000000  0.77125428
   0.89180612  0.00000000  0.22874569
   0.50000000  0.50000000 -0.00000000
   0.75859866  0.50000000  0.24143420
   0.24140137  0.50000000  0.75856578
   0.60819388  0.50000000  0.77125428
   0.39180612  0.50000000  0.22874569
Direct configuration=    10
   0.50000000 -0.00000000  0.50000000
   0.15585300  0.00000000  0.46098458
   0.84414699 -0.00000000  0.53901539
   0.87743929  0.50000000  0.99366773
   0.12256071  0.50000000  0.00633225
  -0.00000000  0.50000000  0.50000000
   0.65585301  0.50000000  0.46098458
   0.34414702  0.50000000  0.53901539
   0.37743929 -0.00000000  0.99366773
   0.62256071 -0.00000000  0.00633225
  -0.00000000 -0.00000000 -0.00000000
   0.25860371  0.00000000  0.24144651
   0.74139626 -0.00000000  0.75855347
   0.10817606 -0.00000000  0.77124404
   0.89182396  0.00000000  0.22875593
   0.50000000  0.50000000 -0.00000000
   0.75860374  0.50000000  0.24144651
   0.24139629  0.50000000  0.75855347
   0.60817604  0.50000000  0.77124404
   0.39182396  0.50000000  0.22875593
Direct configuration=    11
   0.50000000 -0.00000000  0.50000000
   0.15587618  0.00000000  0.46101160
   0.84412380 -0.00000000  0.53898837
   0.87741955  0.50000000  0.99366353
   0.12258044  0.50000000  0.00633645
  -0.00000000  0.50000000  0.50000000
   0.65587620  0.50000000  0.46101160
   0.34412383  0.50000000  0.53898837
   0.37741955 -0.00000000  0.99366353
   0.62258045 -0.00000000  0.00633645
  -0.00000000 -0.00000000 -0.00000000
   0.25861151  0.00000000  0.24146542
   0.74138846 -0.00000000  0.75853457
   0.10814865 -0.00000000  0.77122832
   0.89185137  0.00000000  0.22877165
   0.50000000  0.50000000 -0.00000000
   0.75861154  0.50000000  0.24146542
   0.24138849  0.50000000  0.75853457
   0.60814863  0.50000000  0.77122832
   0.39185137  0.50000000  0.22877165
