       N       E                     dE             d eps       ncg     rms          rms(c)
DAV:   1     0.933865916987E+03    0.93387E+03   -0.54020E+04 49056   0.176E+03
DAV:   2     0.201629648304E+01   -0.93185E+03   -0.90096E+03 49056   0.401E+02
DAV:   3    -0.924522599422E+02   -0.94469E+02   -0.89774E+02 51280   0.149E+02
DAV:   4    -0.960124086088E+02   -0.35601E+01   -0.34987E+01 57580   0.284E+01
DAV:   5    -0.961046724591E+02   -0.92264E-01   -0.92046E-01 59168   0.395E+00    0.343E+01
RMM:   6    -0.103675444076E+03   -0.75708E+01   -0.43011E+02 49147   0.124E+02    0.252E+01
RMM:   7    -0.790129773018E+02    0.24662E+02   -0.92487E+01 49056   0.618E+01    0.275E+00
RMM:   8    -0.790784745696E+02   -0.65497E-01   -0.91744E+00 49056   0.157E+01    0.461E+00
RMM:   9    -0.786490696622E+02    0.42940E+00   -0.99304E-01 49057   0.631E+00    0.573E-01
RMM:  10    -0.786430867255E+02    0.59829E-02   -0.32079E-02 49060   0.780E-01    0.313E-01
RMM:  11    -0.786406519536E+02    0.24348E-02   -0.18305E-02 49056   0.570E-01    0.741E-02
RMM:  12    -0.786406125113E+02    0.39442E-04   -0.51793E-04 49061   0.981E-02    0.492E-02
RMM:  13    -0.786405919445E+02    0.20567E-04   -0.19451E-04 49057   0.744E-02    0.244E-02
RMM:  14    -0.786405753480E+02    0.16596E-04   -0.30733E-05 31071   0.346E-02    0.482E-03
RMM:  15    -0.786405755184E+02   -0.17035E-06   -0.53457E-06 27619   0.126E-02
   1 F= -.78640576E+02 E0= -.78635660E+02  d E =-.786406E+02
       N       E                     dE             d eps       ncg     rms          rms(c)
DAV:   1    -0.786407579085E+02   -0.18256E-03   -0.10142E-02 52812   0.370E-01    0.972E-03
RMM:   2    -0.786407595420E+02   -0.16335E-05   -0.41006E-05 35363   0.409E-02    0.748E-03
RMM:   3    -0.786407590954E+02    0.44661E-06   -0.78712E-06 26069   0.141E-02    0.408E-03
RMM:   4    -0.786407585546E+02    0.54082E-06   -0.26088E-06 25657   0.107E-02
   2 F= -.78640759E+02 E0= -.78635846E+02  d E =-.183036E-03
       N       E                     dE             d eps       ncg     rms          rms(c)
DAV:   1    -0.786410794505E+02   -0.32036E-03   -0.91178E-02 50716   0.111E+00    0.293E-02
RMM:   2    -0.786410822683E+02   -0.28178E-05   -0.36037E-04 49056   0.119E-01    0.854E-03
RMM:   3    -0.786410809914E+02    0.12769E-05   -0.16315E-05 28050   0.236E-02    0.108E-03
RMM:   4    -0.786410816070E+02   -0.61556E-06   -0.39625E-06 26151   0.105E-02
   3 F= -.78641082E+02 E0= -.78636179E+02  d E =-.506089E-03
       N       E                     dE             d eps       ncg     rms          rms(c)
DAV:   1    -0.786411184028E+02   -0.37411E-04   -0.18045E-02 50656   0.492E-01    0.132E-02
RMM:   2    -0.786411188222E+02   -0.41945E-06   -0.68331E-05 43675   0.520E-02    0.269E-03
RMM:   3    -0.786411190565E+02   -0.23427E-06   -0.42928E-06 25861   0.116E-02    0.104E-03
RMM:   4    -0.786411190842E+02   -0.27645E-07   -0.13024E-06 25308   0.754E-03
   4 F= -.78641119E+02 E0= -.78636221E+02  d E =-.543566E-03
       N       E                     dE             d eps       ncg     rms          rms(c)
DAV:   1    -0.786412393554E+02   -0.12030E-03   -0.20558E-02 49980   0.532E-01    0.133E-02
RMM:   2    -0.786413015233E+02   -0.62168E-04   -0.33674E-04 49056   0.110E-01    0.510E-02
RMM:   3    -0.786412403178E+02    0.61206E-04   -0.24782E-04 49053   0.931E-02    0.425E-03
RMM:   4    -0.786412403441E+02   -0.26346E-07   -0.52406E-06 25457   0.821E-03
   5 F= -.78641240E+02 E0= -.78636347E+02  d E =-.121260E-03
       N       E                     dE             d eps       ncg     rms          rms(c)
DAV:   1    -0.786413230238E+02   -0.82706E-04   -0.62302E-02 49388   0.926E-01    0.233E-02
RMM:   2    -0.786413244294E+02   -0.14057E-05   -0.23658E-04 49056   0.988E-02    0.934E-03
RMM:   3    -0.786413243735E+02    0.55911E-07   -0.88490E-06 27046   0.142E-02    0.695E-03
RMM:   4    -0.786413246070E+02   -0.23351E-06   -0.19183E-06 25960   0.762E-03
   6 F= -.78641325E+02 E0= -.78636440E+02  d E =-.205523E-03
       N       E                     dE             d eps       ncg     rms          rms(c)
DAV:   1    -0.786413604355E+02   -0.36062E-04   -0.16317E-02 50320   0.467E-01    0.131E-02
RMM:   2    -0.786413591422E+02    0.12933E-05   -0.32982E-05 30746   0.375E-02    0.971E-03
RMM:   3    -0.786413587962E+02    0.34602E-06   -0.14037E-05 25459   0.215E-02    0.477E-03
RMM:   4    -0.786413581621E+02    0.63407E-06   -0.59054E-06 25081   0.126E-02
   7 F= -.78641358E+02 E0= -.78636475E+02  d E =-.335551E-04
       N       E                     dE             d eps       ncg     rms          rms(c)
DAV:   1    -0.786413857189E+02   -0.26923E-04   -0.44672E-02 49336   0.773E-01    0.196E-02
RMM:   2    -0.786413929908E+02   -0.72718E-05   -0.11459E-04 49031   0.675E-02    0.223E-02
RMM:   3    -0.786413948976E+02   -0.19069E-05   -0.38118E-06 25656   0.918E-03    0.243E-02
RMM:   4    -0.786413988081E+02   -0.39105E-05   -0.14007E-06 25151   0.522E-03
   8 F= -.78641399E+02 E0= -.78636519E+02  d E =-.742011E-04
       N       E                     dE             d eps       ncg     rms          rms(c)
DAV:   1    -0.786414139511E+02   -0.19054E-04   -0.10192E-02 49640   0.371E-01    0.291E-02
RMM:   2    -0.786414129434E+02    0.10077E-05   -0.20306E-05 26219   0.313E-02    0.297E-02
RMM:   3    -0.786414166766E+02   -0.37331E-05   -0.32850E-06 24975   0.933E-03    0.318E-02
RMM:   4    -0.786414176639E+02   -0.98739E-06   -0.69392E-07 24694   0.479E-03
   9 F= -.78641418E+02 E0= -.78636540E+02  d E =-.188558E-04
       N       E                     dE             d eps       ncg     rms          rms(c)
DAV:   1    -0.786414254161E+02   -0.87395E-05   -0.17746E-02 49296   0.490E-01    0.352E-02
RMM:   2    -0.786414326072E+02   -0.71911E-05   -0.38902E-05 33140   0.428E-02    0.399E-02
RMM:   3    -0.786414326741E+02   -0.66888E-07   -0.30871E-06 25179   0.910E-03    0.392E-02
RMM:   4    -0.786414351913E+02   -0.25173E-05   -0.24068E-06 24941   0.792E-03
  10 F= -.78641435E+02 E0= -.78636561E+02  d E =-.363832E-04
       N       E                     dE             d eps       ncg     rms          rms(c)
DAV:   1    -0.786414331801E+02   -0.50610E-06   -0.23836E-04 51264   0.603E-02    0.401E-02
RMM:   2    -0.786414325657E+02    0.61442E-06   -0.20872E-06 24745   0.940E-03    0.390E-02
RMM:   3    -0.786414468063E+02   -0.14241E-04   -0.26015E-05 30772   0.179E-02    0.442E-02
RMM:   4    -0.786414418943E+02    0.49121E-05   -0.71955E-06 24665   0.150E-02
  11 F= -.78641442E+02 E0= -.78636567E+02  d E =-.430861E-04
       N       E                     dE             d eps       ncg     rms          rms(c)
DAV:   1    -0.786414372615E+02    0.95448E-05   -0.47936E-03 49368   0.257E-01    0.399E-02
RMM:   2    -0.786414167111E+02    0.20550E-04   -0.20265E-05 26434   0.231E-02    0.315E-02
RMM:   3    -0.786414143338E+02    0.23772E-05   -0.46553E-06 24618   0.847E-03    0.303E-02
RMM:   4    -0.786414100337E+02    0.43002E-05   -0.34705E-06 24607   0.914E-03
  12 F= -.78641410E+02 E0= -.78636533E+02  d E =-.112256E-04
       N       E                     dE             d eps       ncg     rms          rms(c)
DAV:   1    -0.786414060873E+02    0.82466E-05   -0.61919E-06 27708   0.262E-02    0.248E-02
RMM:   2    -0.786414056363E+02    0.45094E-06   -0.55958E-06 24608   0.131E-02    0.234E-02
RMM:   3    -0.786414054636E+02    0.17272E-06   -0.11690E-06 23547   0.597E-03    0.235E-02
RMM:   4    -0.786414052845E+02    0.17912E-06   -0.14019E-07 12669   0.293E-03
  13 F= -.78641405E+02 E0= -.78636528E+02  d E =-.647640E-05
       N       E                     dE             d eps       ncg     rms          rms(c)
DAV:   1    -0.786414046176E+02    0.84607E-06   -0.39533E-06 25168   0.802E-03    0.222E-02
RMM:   2    -0.786414037153E+02    0.90230E-06   -0.95705E-08 11075   0.268E-03    0.217E-02
RMM:   3    -0.786414025402E+02    0.11750E-05   -0.32988E-07 18037   0.339E-03    0.205E-02
RMM:   4    -0.786414019595E+02    0.58070E-06   -0.54796E-08  4532   0.176E-03
  14 F= -.78641402E+02 E0= -.78636525E+02  d E =-.315142E-05
       N       E                     dE             d eps       ncg     rms          rms(c)
DAV:   1    -0.786414004217E+02    0.21186E-05   -0.54137E-07 25016   0.739E-03    0.183E-02
RMM:   2    -0.786413991009E+02    0.13208E-05   -0.46417E-07 14819   0.337E-03    0.166E-02
RMM:   3    -0.786413981369E+02    0.96400E-06   -0.17912E-07  5262   0.252E-03    0.158E-02
RMM:   4    -0.786413970393E+02    0.10976E-05   -0.86147E-07 17708   0.465E-03
  15 F= -.78641397E+02 E0= -.78636520E+02  d E =0.176877E-05
       N       E                     dE             d eps       ncg     rms          rms(c)
DAV:   1    -0.786413935027E+02    0.46343E-05   -0.55181E-06 24780   0.282E-02    0.651E-03
RMM:   2    -0.786413928984E+02    0.60424E-06   -0.58582E-06 24553   0.107E-02    0.127E-03
RMM:   3    -0.786413930337E+02   -0.13524E-06   -0.78747E-07 23374   0.590E-03    0.202E-03
RMM:   4    -0.786413930314E+02    0.22614E-08   -0.11780E-09  1316   0.142E-03
  16 F= -.78641393E+02 E0= -.78636515E+02  d E =0.577671E-05
       N       E                     dE             d eps       ncg     rms          rms(c)
DAV:   1    -0.786413929868E+02    0.46877E-07   -0.16522E-07 24908   0.248E-03    0.126E-03
RMM:   2    -0.786413929822E+02    0.46258E-08   -0.35068E-11  2313   0.154E-03    0.132E-03
RMM:   3    -0.786413929851E+02   -0.29463E-08   -0.80771E-11  1029   0.168E-03    0.135E-03
RMM:   4    -0.786413929652E+02    0.19854E-07    0.00000E+00   633   0.109E-03
  17 F= -.78641393E+02 E0= -.78636515E+02  d E =0.584286E-05
       N       E                     dE             d eps       ncg     rms          rms(c)
DAV:   1    -0.786413929632E+02    0.21943E-07   -0.75620E-08 24824   0.117E-03    0.826E-04
RMM:   2    -0.786413929760E+02   -0.12855E-07    0.00000E+00   729   0.899E-04    0.688E-04
RMM:   3    -0.786413929721E+02    0.39043E-08    0.00000E+00   383   0.123E-03    0.594E-04
RMM:   4    -0.786413929626E+02    0.95125E-08   -0.74143E-10   321   0.175E-03
  18 F= -.78641393E+02 E0= -.78636515E+02  d E =0.584551E-05
       N       E                     dE             d eps       ncg     rms          rms(c)
DAV:   1    -0.786413929752E+02   -0.30498E-08   -0.10477E-07 24804   0.196E-03    0.153E-04
RMM:   2    -0.786413929720E+02    0.31248E-08    0.00000E+00   499   0.854E-04    0.106E-04
RMM:   3    -0.786413929743E+02   -0.22277E-08    0.00000E+00   276   0.946E-04    0.847E-05
RMM:   4    -0.786413929729E+02    0.13745E-08    0.00000E+00   173   0.929E-04
  19 F= -.78641393E+02 E0= -.78636515E+02  d E =0.583522E-05
       N       E                     dE             d eps       ncg     rms          rms(c)
DAV:   1    -0.786413929751E+02   -0.84418E-09   -0.20219E-08 24760   0.921E-04    0.137E-04
RMM:   2    -0.786413929808E+02   -0.56779E-08    0.00000E+00   292   0.605E-04    0.524E-05
RMM:   3    -0.786413929809E+02   -0.11391E-09    0.00000E+00   192   0.709E-04    0.313E-05
RMM:   4    -0.786413929825E+02   -0.16455E-08    0.00000E+00   138   0.749E-04
  20 F= -.78641393E+02 E0= -.78636515E+02  d E =0.582557E-05
       N       E                     dE             d eps       ncg     rms          rms(c)
DAV:   1    -0.786413929834E+02   -0.25321E-08   -0.14654E-08 24780   0.750E-04    0.167E-04
RMM:   2    -0.786413929784E+02    0.50476E-08    0.00000E+00   243   0.573E-04    0.602E-05
RMM:   3    -0.786413929776E+02    0.79137E-09    0.00000E+00   169   0.590E-04    0.586E-05
RMM:   4    -0.786413929774E+02    0.17940E-09    0.00000E+00   114   0.607E-04
  21 F= -.78641393E+02 E0= -.78636515E+02  d E =0.583070E-05
       N       E                     dE             d eps       ncg     rms          rms(c)
DAV:   1    -0.786413929774E+02    0.21953E-09   -0.82605E-09 24688   0.636E-04    0.962E-05
RMM:   2    -0.786413929831E+02   -0.57333E-08    0.00000E+00   192   0.411E-04    0.440E-05
RMM:   3    -0.786413929823E+02    0.82122E-09    0.00000E+00   131   0.409E-04    0.409E-05
RMM:   4    -0.786413929822E+02    0.38369E-10    0.00000E+00    98   0.407E-04
  22 F= -.78641393E+02 E0= -.78636515E+02  d E =0.582587E-05
       N       E                     dE             d eps       ncg     rms          rms(c)
DAV:   1    -0.786413826385E+02    0.10344E-04   -0.22368E-02 49072   0.550E-01    0.136E-02
RMM:   2    -0.786413810006E+02    0.16379E-05   -0.53345E-05 43238   0.451E-02    0.697E-03
RMM:   3    -0.786413803032E+02    0.69743E-06   -0.42817E-06 24958   0.139E-02    0.440E-03
RMM:   4    -0.786413800208E+02    0.28242E-06   -0.39796E-06 24707   0.124E-02
  23 F= -.78641380E+02 E0= -.78636499E+02  d E =0.187874E-04
