AlCu                                    
           1
    12.119773   -0.060599    0.008568
    -0.020524    4.063685    0.000000
    -3.973711    0.019869    5.684858
   Al   Cu
  10  10
Direct configuration=     1
   0.50000000  0.00000000  0.50000000
   0.15587366  0.00000000  0.46137374
   0.84412632  0.00000000  0.53862623
   0.87805559  0.50000000  0.99541334
   0.12194440  0.50000000  0.00458663
   0.00000000  0.50000000  0.50000000
   0.65587368  0.50000000  0.46137374
   0.34412635  0.50000000  0.53862623
   0.37805559  0.00000000  0.99541334
   0.62194441  0.00000000  0.00458663
   0.00000000  0.00000000  0.00000000
   0.25805145  0.00000000  0.24172886
   0.74194852  0.00000000  0.75827112
   0.10866387  0.00000000  0.77167894
   0.89133614  0.00000000  0.22832103
   0.50000000  0.50000000  0.00000000
   0.75805148  0.50000000  0.24172886
   0.24194855  0.50000000  0.75827112
   0.60866386  0.50000000  0.77167894
   0.39133614  0.50000000  0.22832103
Direct configuration=     2
   0.50000000  0.00000000  0.50000000
   0.15581377  0.00001783  0.46121675
   0.84418622 -0.00001783  0.53878322
   0.87805034  0.49991047  0.99543327
   0.12194965  0.50008953  0.00456671
  -0.00000000  0.50000000  0.50000000
   0.65581378  0.50001783  0.46121675
   0.34418625  0.49998217  0.53878322
   0.37805034 -0.00008953  0.99543327
   0.62194966  0.00008953  0.00456671
  -0.00000000  0.00000000 -0.00000000
   0.25806856 -0.00002141  0.24183629
   0.74193141  0.00002141  0.75816370
   0.10867171 -0.00001446  0.77171291
   0.89132830  0.00001446  0.22828706
   0.50000000  0.50000000 -0.00000000
   0.75806859  0.49997859  0.24183629
   0.24193144  0.50002141  0.75816370
   0.60867170  0.49998554  0.77171291
   0.39132830  0.50001446  0.22828706
Direct configuration=     3
   0.50000000  0.00000000  0.50000000
   0.15563410  0.00007133  0.46074578
   0.84436589 -0.00007133  0.53925419
   0.87803460  0.49964188  0.99549304
   0.12196539  0.50035812  0.00450693
  -0.00000000  0.50000000  0.50000000
   0.65563411  0.50007133  0.46074578
   0.34436592  0.49992867  0.53925419
   0.37803460 -0.00035812  0.99549304
   0.62196540  0.00035812  0.00450693
  -0.00000000  0.00000000 -0.00000000
   0.25811990 -0.00008564  0.24215856
   0.74188007  0.00008564  0.75784143
   0.10869523 -0.00005783  0.77181485
   0.89130479  0.00005783  0.22818512
   0.50000000  0.50000000 -0.00000000
   0.75811993  0.49991436  0.24215856
   0.24188010  0.50008564  0.75784143
   0.60869521  0.49994217  0.77181485
   0.39130479  0.50005783  0.22818512
Direct configuration=     4
   0.50000000  0.00000000  0.50000000
   0.15555422  0.00009511  0.46053639
   0.84444577 -0.00009511  0.53946358
   0.87802760  0.49952247  0.99551962
   0.12197239  0.50047753  0.00448036
  -0.00000000  0.50000000  0.50000000
   0.65555423  0.50009511  0.46053639
   0.34444580  0.49990489  0.53946358
   0.37802760 -0.00047753  0.99551962
   0.62197240  0.00047753  0.00448036
  -0.00000000  0.00000000 -0.00000000
   0.25814272 -0.00011419  0.24230184
   0.74185725  0.00011419  0.75769815
   0.10870568 -0.00007712  0.77186017
   0.89129433  0.00007712  0.22813980
   0.50000000  0.50000000 -0.00000000
   0.75814275  0.49988581  0.24230184
   0.24185728  0.50011419  0.75769815
   0.60870567  0.49992288  0.77186017
   0.39129433  0.50007712  0.22813980
Direct configuration=     5
   0.50000000  0.00000000  0.50000000
   0.15543025  0.00013455  0.46040708
   0.84456974 -0.00013455  0.53959289
   0.87799569  0.49958199  0.99550065
   0.12200430  0.50041801  0.00449933
  -0.00000000  0.50000000  0.50000000
   0.65543026  0.50013455  0.46040708
   0.34456977  0.49986545  0.53959289
   0.37799569 -0.00041801  0.99550065
   0.62200431  0.00041801  0.00449933
  -0.00000000  0.00000000 -0.00000000
   0.25818648 -0.00006040  0.24240883
   0.74181349  0.00006040  0.75759116
   0.10876981 -0.00000157  0.77189452
   0.89123020  0.00000157  0.22810545
   0.50000000  0.50000000 -0.00000000
   0.75818651  0.49993960  0.24240883
   0.24181352  0.50006040  0.75759116
   0.60876980  0.49999843  0.77189452
   0.39123020  0.50000157  0.22810545
Direct configuration=     6
   0.50000000  0.00000000  0.50000000
   0.15521444  0.00020319  0.46018197
   0.84478555 -0.00020319  0.53981801
   0.87794014  0.49968560  0.99546762
   0.12205986  0.50031440  0.00453236
  -0.00000000  0.50000000  0.50000000
   0.65521445  0.50020319  0.46018197
   0.34478558  0.49979681  0.53981801
   0.37794014 -0.00031440  0.99546762
   0.62205986  0.00031440  0.00453236
  -0.00000000  0.00000000 -0.00000000
   0.25826266  0.00003325  0.24259508
   0.74173731 -0.00003325  0.75740490
   0.10888145  0.00012994  0.77195433
   0.89111857 -0.00012994  0.22804564
   0.50000000  0.50000000 -0.00000000
   0.75826269  0.50003325  0.24259508
   0.24173734  0.49996675  0.75740490
   0.60888143  0.50012994  0.77195433
   0.39111857  0.49987006  0.22804564
Direct configuration=     7
   0.50000000  0.00000000  0.50000000
   0.15518261  0.00020489  0.46014212
   0.84481737 -0.00020489  0.53985785
   0.87791896  0.49967556  0.99540583
   0.12208103  0.50032444  0.00459415
  -0.00000000  0.50000000  0.50000000
   0.65518263  0.50020489  0.46014212
   0.34481740  0.49979511  0.53985785
   0.37791896 -0.00032444  0.99540583
   0.62208104  0.00032444  0.00459415
  -0.00000000  0.00000000 -0.00000000
   0.25823511  0.00000386  0.24259472
   0.74176486 -0.00000386  0.75740527
   0.10896191  0.00011579  0.77205254
   0.89103810 -0.00011579  0.22794743
   0.50000000  0.50000000 -0.00000000
   0.75823514  0.50000386  0.24259472
   0.24176489  0.49999614  0.75740527
   0.60896190  0.50011579  0.77205254
   0.39103810  0.49988421  0.22794743
Direct configuration=     8
   0.50000000  0.00000000  0.50000000
   0.15512995  0.00020770  0.46007619
   0.84487003 -0.00020770  0.53992378
   0.87788392  0.49965896  0.99530359
   0.12211607  0.50034104  0.00469638
  -0.00000000  0.50000000  0.50000000
   0.65512997  0.50020770  0.46007619
   0.34487006  0.49979230  0.53992378
   0.37788392 -0.00034104  0.99530359
   0.62211608  0.00034104  0.00469638
  -0.00000000  0.00000000 -0.00000000
   0.25818953 -0.00004477  0.24259411
   0.74181044  0.00004477  0.75740587
   0.10909505  0.00009239  0.77221504
   0.89090496 -0.00009239  0.22778493
   0.50000000  0.50000000 -0.00000000
   0.75818956  0.49995523  0.24259411
   0.24181047  0.50004477  0.75740587
   0.60909504  0.50009239  0.77221504
   0.39090496  0.49990761  0.22778493
Direct configuration=     9
   0.50000000  0.00000000  0.50000000
   0.15512334  0.00020850  0.46008364
   0.84487664 -0.00020850  0.53991633
   0.87791429  0.49966983  0.99528890
   0.12208570  0.50033017  0.00471108
  -0.00000000  0.50000000  0.50000000
   0.65512336  0.50020850  0.46008364
   0.34487667  0.49979150  0.53991633
   0.37791429 -0.00033017  0.99528890
   0.62208571  0.00033017  0.00471108
  -0.00000000  0.00000000 -0.00000000
   0.25821072 -0.00006043  0.24266852
   0.74178925  0.00006043  0.75733147
   0.10914570  0.00008351  0.77229826
   0.89085431 -0.00008351  0.22770171
   0.50000000  0.50000000 -0.00000000
   0.75821075  0.49993957  0.24266852
   0.24178928  0.50006043  0.75733147
   0.60914569  0.50008351  0.77229826
   0.39085431  0.49991649  0.22770171
Direct configuration=    10
   0.50000000  0.00000000  0.50000000
   0.15511462  0.00020956  0.46009348
   0.84488537 -0.00020956  0.53990649
   0.87795438  0.49968419  0.99526950
   0.12204561  0.50031581  0.00473047
  -0.00000000  0.50000000  0.50000000
   0.65511463  0.50020956  0.46009348
   0.34488540  0.49979044  0.53990649
   0.37795438 -0.00031581  0.99526950
   0.62204562  0.00031581  0.00473047
  -0.00000000  0.00000000 -0.00000000
   0.25823868 -0.00008110  0.24276673
   0.74176129  0.00008110  0.75723326
   0.10921256  0.00007181  0.77240809
   0.89078746 -0.00007181  0.22759188
   0.50000000  0.50000000 -0.00000000
   0.75823871  0.49991890  0.24276673
   0.24176132  0.50008110  0.75723326
   0.60921254  0.50007181  0.77240809
   0.39078746  0.49992819  0.22759188
Direct configuration=    11
   0.50000000  0.00000000  0.50000000
   0.15511562  0.00020944  0.46009235
   0.84488436 -0.00020944  0.53990762
   0.87794977  0.49968254  0.99527173
   0.12205022  0.50031746  0.00472824
  -0.00000000  0.50000000  0.50000000
   0.65511564  0.50020944  0.46009235
   0.34488439  0.49979056  0.53990762
   0.37794977 -0.00031746  0.99527173
   0.62205023  0.00031746  0.00472824
  -0.00000000  0.00000000 -0.00000000
   0.25823546 -0.00007872  0.24275543
   0.74176451  0.00007872  0.75724455
   0.10920487  0.00007315  0.77239546
   0.89079514 -0.00007315  0.22760451
   0.50000000  0.50000000 -0.00000000
   0.75823549  0.49992128  0.24275543
   0.24176454  0.50007872  0.75724455
   0.60920486  0.50007315  0.77239546
   0.39079514  0.49992685  0.22760451
Direct configuration=    12
   0.50000000  0.00000000  0.50000000
   0.15512016  0.00020889  0.46008724
   0.84487983 -0.00020889  0.53991273
   0.87792893  0.49967507  0.99528182
   0.12207107  0.50032493  0.00471816
  -0.00000000  0.50000000  0.50000000
   0.65512017  0.50020889  0.46008724
   0.34487986  0.49979111  0.53991273
   0.37792893 -0.00032493  0.99528182
   0.62207107  0.00032493  0.00471816
  -0.00000000  0.00000000 -0.00000000
   0.25822093 -0.00006798  0.24270437
   0.74177904  0.00006798  0.75729561
   0.10917011  0.00007924  0.77233835
   0.89082991 -0.00007924  0.22766162
   0.50000000  0.50000000 -0.00000000
   0.75822096  0.49993202  0.24270437
   0.24177907  0.50006798  0.75729561
   0.60917009  0.50007924  0.77233835
   0.39082991  0.49992076  0.22766162
Direct configuration=    13
   0.50000000  0.00000000  0.50000000
   0.15512031  0.00020887  0.46008707
   0.84487968 -0.00020887  0.53991290
   0.87792824  0.49967482  0.99528215
   0.12207176  0.50032518  0.00471782
  -0.00000000  0.50000000  0.50000000
   0.65512032  0.50020887  0.46008707
   0.34487971  0.49979113  0.53991290
   0.37792824 -0.00032518  0.99528215
   0.62207176  0.00032518  0.00471782
  -0.00000000  0.00000000 -0.00000000
   0.25822044 -0.00006762  0.24270268
   0.74177953  0.00006762  0.75729731
   0.10916896  0.00007944  0.77233646
   0.89083106 -0.00007944  0.22766351
   0.50000000  0.50000000 -0.00000000
   0.75822047  0.49993238  0.24270268
   0.24177956  0.50006762  0.75729731
   0.60916894  0.50007944  0.77233646
   0.39083106  0.49992056  0.22766351
Direct configuration=    14
   0.50000000  0.00000000  0.50000000
   0.15512017  0.00020889  0.46008722
   0.84487981 -0.00020889  0.53991275
   0.87792887  0.49967505  0.99528185
   0.12207113  0.50032495  0.00471813
  -0.00000000  0.50000000  0.50000000
   0.65512019  0.50020889  0.46008722
   0.34487984  0.49979111  0.53991275
   0.37792887 -0.00032495  0.99528185
   0.62207113  0.00032495  0.00471813
  -0.00000000  0.00000000 -0.00000000
   0.25822088 -0.00006795  0.24270422
   0.74177909  0.00006795  0.75729576
   0.10917001  0.00007926  0.77233819
   0.89083001 -0.00007926  0.22766178
   0.50000000  0.50000000 -0.00000000
   0.75822091  0.49993205  0.24270422
   0.24177912  0.50006795  0.75729576
   0.60916999  0.50007926  0.77233819
   0.39083001  0.49992074  0.22766178
Direct configuration=    15
   0.50000000  0.00000000  0.50000000
   0.15512016  0.00020889  0.46008723
   0.84487983 -0.00020889  0.53991274
   0.87792892  0.49967507  0.99528182
   0.12207108  0.50032493  0.00471815
  -0.00000000  0.50000000  0.50000000
   0.65512017  0.50020889  0.46008723
   0.34487986  0.49979111  0.53991274
   0.37792892 -0.00032493  0.99528182
   0.62207108  0.00032493  0.00471815
  -0.00000000  0.00000000 -0.00000000
   0.25822092 -0.00006797  0.24270434
   0.74177905  0.00006797  0.75729564
   0.10917009  0.00007924  0.77233832
   0.89082993 -0.00007924  0.22766165
   0.50000000  0.50000000 -0.00000000
   0.75822095  0.49993203  0.24270434
   0.24177908  0.50006797  0.75729564
   0.60917007  0.50007924  0.77233832
   0.39082993  0.49992076  0.22766165
Direct configuration=    16
   0.50000000  0.00000000  0.50000000
   0.15512016  0.00020889  0.46008724
   0.84487983 -0.00020889  0.53991274
   0.87792893  0.49967507  0.99528182
   0.12207107  0.50032493  0.00471816
  -0.00000000  0.50000000  0.50000000
   0.65512017  0.50020889  0.46008724
   0.34487986  0.49979111  0.53991274
   0.37792893 -0.00032493  0.99528182
   0.62207107  0.00032493  0.00471816
  -0.00000000  0.00000000 -0.00000000
   0.25822092 -0.00006798  0.24270436
   0.74177905  0.00006798  0.75729562
   0.10917011  0.00007924  0.77233835
   0.89082991 -0.00007924  0.22766162
   0.50000000  0.50000000 -0.00000000
   0.75822095  0.49993202  0.24270436
   0.24177908  0.50006798  0.75729562
   0.60917009  0.50007924  0.77233835
   0.39082991  0.49992076  0.22766162
Direct configuration=    17
   0.50000000  0.00000000  0.50000000
   0.15512016  0.00020889  0.46008724
   0.84487983 -0.00020889  0.53991274
   0.87792893  0.49967507  0.99528182
   0.12207107  0.50032493  0.00471816
  -0.00000000  0.50000000  0.50000000
   0.65512017  0.50020889  0.46008724
   0.34487986  0.49979111  0.53991274
   0.37792893 -0.00032493  0.99528182
   0.62207107  0.00032493  0.00471816
  -0.00000000  0.00000000 -0.00000000
   0.25822092 -0.00006798  0.24270437
   0.74177905  0.00006798  0.75729562
   0.10917011  0.00007924  0.77233835
   0.89082991 -0.00007924  0.22766162
   0.50000000  0.50000000 -0.00000000
   0.75822095  0.49993202  0.24270437
   0.24177908  0.50006798  0.75729562
   0.60917009  0.50007924  0.77233835
   0.39082991  0.49992076  0.22766162
Direct configuration=    18
   0.50000000  0.00000000  0.50000000
   0.15512016  0.00020889  0.46008724
   0.84487983 -0.00020889  0.53991273
   0.87792893  0.49967507  0.99528182
   0.12207107  0.50032493  0.00471816
  -0.00000000  0.50000000  0.50000000
   0.65512017  0.50020889  0.46008724
   0.34487986  0.49979111  0.53991273
   0.37792893 -0.00032493  0.99528182
   0.62207107  0.00032493  0.00471816
  -0.00000000  0.00000000 -0.00000000
   0.25822092 -0.00006798  0.24270437
   0.74177905  0.00006798  0.75729562
   0.10917011  0.00007924  0.77233835
   0.89082991 -0.00007924  0.22766162
   0.50000000  0.50000000 -0.00000000
   0.75822095  0.49993202  0.24270437
   0.24177908  0.50006798  0.75729562
   0.60917009  0.50007924  0.77233835
   0.39082991  0.49992076  0.22766162
Direct configuration=    19
   0.50000000  0.00000000  0.50000000
   0.15512016  0.00020889  0.46008724
   0.84487983 -0.00020889  0.53991273
   0.87792893  0.49967507  0.99528182
   0.12207107  0.50032493  0.00471816
  -0.00000000  0.50000000  0.50000000
   0.65512017  0.50020889  0.46008724
   0.34487986  0.49979111  0.53991273
   0.37792893 -0.00032493  0.99528182
   0.62207107  0.00032493  0.00471816
  -0.00000000  0.00000000 -0.00000000
   0.25822092 -0.00006798  0.24270437
   0.74177905  0.00006798  0.75729561
   0.10917011  0.00007924  0.77233835
   0.89082991 -0.00007924  0.22766162
   0.50000000  0.50000000 -0.00000000
   0.75822095  0.49993202  0.24270437
   0.24177908  0.50006798  0.75729561
   0.60917009  0.50007924  0.77233835
   0.39082991  0.49992076  0.22766162
Direct configuration=    20
   0.50000000  0.00000000  0.50000000
   0.15512016  0.00020889  0.46008724
   0.84487983 -0.00020889  0.53991273
   0.87792893  0.49967507  0.99528182
   0.12207107  0.50032493  0.00471816
  -0.00000000  0.50000000  0.50000000
   0.65512017  0.50020889  0.46008724
   0.34487986  0.49979111  0.53991273
   0.37792893 -0.00032493  0.99528182
   0.62207107  0.00032493  0.00471816
  -0.00000000  0.00000000 -0.00000000
   0.25822093 -0.00006798  0.24270437
   0.74177904  0.00006798  0.75729561
   0.10917011  0.00007924  0.77233835
   0.89082991 -0.00007924  0.22766162
   0.50000000  0.50000000 -0.00000000
   0.75822096  0.49993202  0.24270437
   0.24177907  0.50006798  0.75729561
   0.60917009  0.50007924  0.77233835
   0.39082991  0.49992076  0.22766162
Direct configuration=    21
   0.50000000  0.00000000  0.50000000
   0.15512016  0.00020889  0.46008724
   0.84487983 -0.00020889  0.53991273
   0.87792893  0.49967507  0.99528182
   0.12207107  0.50032493  0.00471816
  -0.00000000  0.50000000  0.50000000
   0.65512017  0.50020889  0.46008724
   0.34487986  0.49979111  0.53991273
   0.37792893 -0.00032493  0.99528182
   0.62207107  0.00032493  0.00471816
  -0.00000000  0.00000000 -0.00000000
   0.25822093 -0.00006798  0.24270437
   0.74177904  0.00006798  0.75729561
   0.10917011  0.00007924  0.77233835
   0.89082991 -0.00007924  0.22766162
   0.50000000  0.50000000 -0.00000000
   0.75822096  0.49993202  0.24270437
   0.24177907  0.50006798  0.75729561
   0.60917009  0.50007924  0.77233835
   0.39082991  0.49992076  0.22766162
Direct configuration=    22
   0.50000000  0.00000000  0.50000000
   0.15512016  0.00020889  0.46008724
   0.84487983 -0.00020889  0.53991273
   0.87792893  0.49967507  0.99528182
   0.12207107  0.50032493  0.00471816
  -0.00000000  0.50000000  0.50000000
   0.65512017  0.50020889  0.46008724
   0.34487986  0.49979111  0.53991273
   0.37792893 -0.00032493  0.99528182
   0.62207107  0.00032493  0.00471816
  -0.00000000  0.00000000 -0.00000000
   0.25822093 -0.00006798  0.24270437
   0.74177904  0.00006798  0.75729561
   0.10917011  0.00007924  0.77233835
   0.89082991 -0.00007924  0.22766162
   0.50000000  0.50000000 -0.00000000
   0.75822096  0.49993202  0.24270437
   0.24177907  0.50006798  0.75729561
   0.60917009  0.50007924  0.77233835
   0.39082991  0.49992076  0.22766162
