       N       E                     dE             d eps       ncg     rms          rms(c)
DAV:   1     0.555430359144E+03    0.55543E+03   -0.30408E+04 29680   0.121E+03
DAV:   2    -0.655800394356E+02   -0.62101E+03   -0.59872E+03 29512   0.297E+02
DAV:   3    -0.170499188488E+03   -0.10492E+03   -0.98648E+02 41488   0.103E+02
DAV:   4    -0.175321189501E+03   -0.48220E+01   -0.47538E+01 37616   0.240E+01
DAV:   5    -0.175419297634E+03   -0.98108E-01   -0.97734E-01 37608   0.352E+00    0.196E+01
RMM:   6    -0.163398023926E+03    0.12021E+02   -0.13612E+02 29675   0.417E+01    0.540E+00
RMM:   7    -0.161595035200E+03    0.18030E+01   -0.38544E+00 29525   0.792E+00    0.320E+00
RMM:   8    -0.161651945431E+03   -0.56910E-01   -0.70802E+00 29640   0.880E+00    0.290E+00
RMM:   9    -0.161188925241E+03    0.46302E+00   -0.32225E+00 29512   0.695E+00    0.634E-01
RMM:  10    -0.161171941109E+03    0.16984E-01   -0.11796E-01 30135   0.119E+00    0.349E-01
RMM:  11    -0.161166254787E+03    0.56863E-02   -0.22964E-02 29540   0.607E-01    0.100E-01
RMM:  12    -0.161166347323E+03   -0.92536E-04   -0.66757E-03 30542   0.199E-01    0.347E-02
RMM:  13    -0.161166365329E+03   -0.18005E-04   -0.86065E-04 29646   0.131E-01    0.469E-02
RMM:  14    -0.161166275625E+03    0.89703E-04   -0.24874E-04 29572   0.644E-02    0.175E-02
RMM:  15    -0.161166277196E+03   -0.15705E-05   -0.18517E-04 31672   0.375E-02    0.421E-03
RMM:  16    -0.161166275267E+03    0.19291E-05   -0.50271E-06 21871   0.621E-03    0.181E-03
RMM:  17    -0.161166274927E+03    0.34018E-06   -0.18457E-06 19759   0.464E-03
   1 F= -.16116627E+03 E0= -.16115689E+03  d E =-.161166E+03
       N       E                     dE             d eps       ncg     rms          rms(c)
DAV:   1    -0.161167553082E+03   -0.12778E-02   -0.27199E-02 33078   0.496E-01    0.389E-02
RMM:   2    -0.161167566863E+03   -0.13781E-04   -0.55301E-04 29762   0.897E-02    0.299E-02
RMM:   3    -0.161167534922E+03    0.31941E-04   -0.93716E-05 30293   0.287E-02    0.887E-03
RMM:   4    -0.161167534238E+03    0.68407E-06   -0.17706E-05 28624   0.149E-02    0.293E-03
RMM:   5    -0.161167534506E+03   -0.26858E-06   -0.54967E-06 23321   0.671E-03
   2 F= -.16116753E+03 E0= -.16115814E+03  d E =-.125958E-02
       N       E                     dE             d eps       ncg     rms          rms(c)
DAV:   1    -0.161168058750E+03   -0.52451E-03   -0.30446E-02 32344   0.525E-01    0.412E-02
RMM:   2    -0.161168030474E+03    0.28277E-04   -0.45936E-04 29602   0.852E-02    0.288E-03
RMM:   3    -0.161168035425E+03   -0.49515E-05   -0.47745E-05 34181   0.194E-02    0.308E-03
RMM:   4    -0.161168034830E+03    0.59480E-06   -0.13793E-06 18151   0.498E-03
   3 F= -.16116803E+03 E0= -.16115863E+03  d E =-.175990E-02
       N       E                     dE             d eps       ncg     rms          rms(c)
DAV:   1    -0.161168037772E+03   -0.23471E-05   -0.19070E-04 34396   0.416E-02    0.332E-03
RMM:   2    -0.161168037661E+03    0.11157E-06   -0.27781E-06 18712   0.694E-03    0.207E-04
RMM:   3    -0.161168037694E+03   -0.33445E-07   -0.40973E-07 16279   0.270E-03    0.193E-04
RMM:   4    -0.161168037722E+03   -0.28042E-07   -0.13135E-07 15345   0.153E-03
   4 F= -.16116804E+03 E0= -.16115863E+03  d E =-.176280E-02
       N       E                     dE             d eps       ncg     rms          rms(c)
DAV:   1    -0.161168152077E+03   -0.11438E-03   -0.13712E-03 32230   0.116E-01    0.636E-03
RMM:   2    -0.161168160589E+03   -0.85114E-05   -0.73937E-05 29510   0.395E-02    0.572E-03
RMM:   3    -0.161168163757E+03   -0.31676E-05   -0.15781E-05 29663   0.153E-02    0.893E-03
RMM:   4    -0.161168158755E+03    0.50016E-05   -0.14765E-05 29412   0.135E-02    0.302E-03
RMM:   5    -0.161168158675E+03    0.80163E-07   -0.60960E-06 23911   0.772E-03
   5 F= -.16116816E+03 E0= -.16115876E+03  d E =-.120953E-03
       N       E                     dE             d eps       ncg     rms          rms(c)
DAV:   1    -0.161168244255E+03   -0.85500E-04   -0.89380E-03 31540   0.297E-01    0.161E-02
RMM:   2    -0.161168286009E+03   -0.41754E-04   -0.48848E-04 29512   0.101E-01    0.521E-03
RMM:   3    -0.161168288729E+03   -0.27201E-05   -0.32283E-05 32646   0.222E-02    0.342E-03
RMM:   4    -0.161168288921E+03   -0.19160E-06   -0.17613E-06 18503   0.562E-03
   6 F= -.16116829E+03 E0= -.16115889E+03  d E =-.251198E-03
       N       E                     dE             d eps       ncg     rms          rms(c)
DAV:   1    -0.161168289006E+03   -0.27663E-06   -0.17766E-06 22918   0.571E-03    0.136E-03
RMM:   2    -0.161168289168E+03   -0.16198E-06   -0.66256E-07 15540   0.262E-03    0.675E-04
RMM:   3    -0.161168289121E+03    0.46281E-07   -0.13948E-07 14741   0.147E-03    0.448E-04
RMM:   4    -0.161168289115E+03    0.60146E-08   -0.24570E-08  5222   0.803E-04
   7 F= -.16116829E+03 E0= -.16115888E+03  d E =-.251393E-03
       N       E                     dE             d eps       ncg     rms          rms(c)
DAV:   1    -0.161168289080E+03    0.41561E-07   -0.19228E-07 17992   0.159E-03    0.211E-04
RMM:   2    -0.161168289090E+03   -0.10205E-07   -0.84405E-10  2130   0.722E-04    0.151E-04
RMM:   3    -0.161168289109E+03   -0.19395E-07   -0.10964E-09  1609   0.755E-04    0.986E-05
RMM:   4    -0.161168289123E+03   -0.13917E-07   -0.85596E-09  3232   0.825E-04
   8 F= -.16116829E+03 E0= -.16115888E+03  d E =-.251401E-03
       N       E                     dE             d eps       ncg     rms          rms(c)
DAV:   1    -0.161168289124E+03   -0.14607E-07   -0.40914E-08 17720   0.825E-04    0.842E-05
RMM:   2    -0.161168289097E+03    0.26881E-07   -0.53370E-09  3235   0.732E-04    0.674E-05
RMM:   3    -0.161168289113E+03   -0.16398E-07   -0.99371E-10  1209   0.641E-04    0.763E-05
RMM:   4    -0.161168289119E+03   -0.51028E-08    0.00000E+00   725   0.572E-04
   9 F= -.16116829E+03 E0= -.16115888E+03  d E =-.251396E-03
       N       E                     dE             d eps       ncg     rms          rms(c)
DAV:   1    -0.161168289112E+03    0.10001E-08   -0.15130E-08 16688   0.581E-04    0.902E-05
RMM:   2    -0.161168289095E+03    0.17242E-07    0.00000E+00   774   0.275E-04    0.797E-05
RMM:   3    -0.161168289109E+03   -0.14026E-07    0.00000E+00   606   0.347E-04    0.462E-05
RMM:   4    -0.161168289119E+03   -0.95868E-08   -0.22989E-27   560   0.409E-04
  10 F= -.16116829E+03 E0= -.16115888E+03  d E =-.251397E-03
       N       E                     dE             d eps       ncg     rms          rms(c)
DAV:   1    -0.161168289119E+03   -0.94986E-08   -0.16135E-08 16856   0.516E-04    0.771E-05
RMM:   2    -0.161168289130E+03   -0.10862E-07    0.00000E+00   698   0.412E-04    0.489E-05
RMM:   3    -0.161168289131E+03   -0.13463E-08   -0.19229E-27   542   0.453E-04    0.397E-05
RMM:   4    -0.161168289130E+03    0.12698E-08    0.00000E+00   498   0.503E-04
  11 F= -.16116829E+03 E0= -.16115888E+03  d E =-.251408E-03
       N       E                     dE             d eps       ncg     rms          rms(c)
DAV:   1    -0.161168289396E+03   -0.26498E-06   -0.47201E-06 28210   0.672E-03    0.450E-04
RMM:   2    -0.161168289449E+03   -0.52911E-07   -0.29339E-07 14866   0.237E-03    0.622E-04
RMM:   3    -0.161168289388E+03    0.61058E-07   -0.96754E-08 14713   0.151E-03    0.261E-04
RMM:   4    -0.161168289416E+03   -0.28068E-07   -0.79046E-09  5259   0.812E-04
  12 F= -.16116829E+03 E0= -.16115888E+03  d E =-.286176E-06
       N       E                     dE             d eps       ncg     rms          rms(c)
DAV:   1    -0.161168289561E+03   -0.17320E-06   -0.27423E-05 30800   0.161E-02    0.917E-04
RMM:   2    -0.161168289732E+03   -0.17138E-06   -0.19350E-06 15542   0.676E-03    0.138E-03
RMM:   3    -0.161168289651E+03    0.81115E-07   -0.34981E-07 14901   0.332E-03    0.853E-04
RMM:   4    -0.161168289729E+03   -0.78083E-07   -0.65609E-08 11830   0.118E-03
  13 F= -.16116829E+03 E0= -.16115888E+03  d E =-.599656E-06
       N       E                     dE             d eps       ncg     rms          rms(c)
DAV:   1    -0.161168289733E+03   -0.81596E-07   -0.54158E-07 16670   0.250E-03    0.608E-04
RMM:   2    -0.161168289678E+03    0.54709E-07   -0.15092E-08  4933   0.881E-04    0.517E-04
RMM:   3    -0.161168289682E+03   -0.36563E-08   -0.21192E-10   776   0.736E-04    0.520E-04
RMM:   4    -0.161168289690E+03   -0.78755E-08   -0.32801E-09  2160   0.807E-04
  14 F= -.16116829E+03 E0= -.16115888E+03  d E =-.559992E-06
       N       E                     dE             d eps       ncg     rms          rms(c)
DAV:   1    -0.161168289700E+03   -0.18354E-07   -0.15930E-07 16478   0.136E-03    0.354E-04
RMM:   2    -0.161168289752E+03   -0.51620E-07   -0.14782E-10  1485   0.585E-04    0.287E-04
RMM:   3    -0.161168289745E+03    0.63961E-08   -0.43287E-09  1915   0.672E-04    0.234E-04
RMM:   4    -0.161168289734E+03    0.11300E-07   -0.43032E-09  1377   0.665E-04
  15 F= -.16116829E+03 E0= -.16115888E+03  d E =-.604395E-06
       N       E                     dE             d eps       ncg     rms          rms(c)
DAV:   1    -0.161168289732E+03    0.13215E-07   -0.63975E-08 16280   0.837E-04    0.824E-05
RMM:   2    -0.161168289724E+03    0.81134E-08   -0.13096E-09  1952   0.510E-04    0.372E-05
RMM:   3    -0.161168289725E+03   -0.69326E-09   -0.86779E-10   995   0.499E-04    0.269E-05
RMM:   4    -0.161168289723E+03    0.14100E-08   -0.50771E-10   683   0.484E-04
  16 F= -.16116829E+03 E0= -.16115888E+03  d E =-.593649E-06
       N       E                     dE             d eps       ncg     rms          rms(c)
DAV:   1    -0.161168289721E+03    0.38274E-08   -0.15548E-08 16256   0.555E-04    0.387E-05
RMM:   2    -0.161168289711E+03    0.96071E-08    0.00000E+00   688   0.226E-04    0.217E-05
RMM:   3    -0.161168289712E+03   -0.49420E-09    0.00000E+00   441   0.243E-04    0.173E-05
RMM:   4    -0.161168289710E+03    0.15773E-08    0.00000E+00   330   0.211E-04
  17 F= -.16116829E+03 E0= -.16115888E+03  d E =-.580541E-06
       N       E                     dE             d eps       ncg     rms          rms(c)
DAV:   1    -0.161168289709E+03    0.31606E-08   -0.33042E-09 15974   0.223E-04    0.339E-05
RMM:   2    -0.161168289707E+03    0.19147E-08    0.00000E+00   628   0.165E-04    0.189E-05
RMM:   3    -0.161168289707E+03   -0.67485E-09    0.00000E+00   298   0.193E-04    0.122E-05
RMM:   4    -0.161168289706E+03    0.10735E-08    0.00000E+00   258   0.237E-04
  18 F= -.16116829E+03 E0= -.16115888E+03  d E =-.576644E-06
       N       E                     dE             d eps       ncg     rms          rms(c)
DAV:   1    -0.161168289708E+03   -0.48300E-09   -0.26355E-09 15770   0.260E-04    0.427E-05
RMM:   2    -0.161168289703E+03    0.49601E-08    0.00000E+00   551   0.164E-04    0.237E-05
RMM:   3    -0.161168289702E+03    0.81479E-09    0.00000E+00   277   0.218E-04    0.121E-05
RMM:   4    -0.161168289702E+03   -0.19213E-09    0.00000E+00   212   0.258E-04
  19 F= -.16116829E+03 E0= -.16115888E+03  d E =-.572618E-06
       N       E                     dE             d eps       ncg     rms          rms(c)
DAV:   1    -0.161168289702E+03   -0.57980E-11   -0.29305E-09 15626   0.271E-04    0.542E-05
RMM:   2    -0.161168289708E+03   -0.63388E-08    0.00000E+00   518   0.289E-04    0.108E-05
RMM:   3    -0.161168289708E+03    0.54342E-09    0.00000E+00   241   0.312E-04    0.606E-06
RMM:   4    -0.161168289708E+03   -0.46373E-09    0.00000E+00   191   0.332E-04
  20 F= -.16116829E+03 E0= -.16115888E+03  d E =-.578691E-06
       N       E                     dE             d eps       ncg     rms          rms(c)
DAV:   1    -0.161168289709E+03   -0.92132E-09   -0.41816E-09 15584   0.339E-04    0.662E-05
RMM:   2    -0.161168289701E+03    0.75992E-08    0.00000E+00   440   0.356E-04    0.704E-06
RMM:   3    -0.161168289701E+03    0.53456E-09    0.00000E+00   199   0.368E-04    0.449E-06
RMM:   4    -0.161168289700E+03    0.77881E-09    0.00000E+00   170   0.380E-04
  21 F= -.16116829E+03 E0= -.16115888E+03  d E =-.570236E-06
       N       E                     dE             d eps       ncg     rms          rms(c)
DAV:   1    -0.161168289700E+03    0.49369E-09   -0.54564E-09 15482   0.388E-04    0.792E-05
RMM:   2    -0.161168289709E+03   -0.91641E-08    0.00000E+00   421   0.441E-04    0.282E-06
RMM:   3    -0.161168289710E+03   -0.41013E-09    0.00000E+00   187   0.450E-04    0.106E-06
RMM:   4    -0.161168289709E+03    0.77927E-09    0.00000E+00   154   0.455E-04
  22 F= -.16116829E+03 E0= -.16115888E+03  d E =-.579316E-06
       N       E                     dE             d eps       ncg     rms          rms(c)
DAV:   1    -0.161168289711E+03   -0.10236E-08   -0.75422E-09 15446   0.455E-04    0.927E-05
RMM:   2    -0.161168289699E+03    0.12008E-07   -0.99288E-26   447   0.520E-04    0.153E-06
RMM:   3    -0.161168289698E+03    0.10056E-08    0.00000E+00   176   0.526E-04    0.251E-07
RMM:   4    -0.161168289698E+03   -0.25960E-09    0.00000E+00   138   0.526E-04
  23 F= -.16116829E+03 E0= -.16115888E+03  d E =-.568365E-06
       N       E                     dE             d eps       ncg     rms          rms(c)
DAV:   1    -0.161168289698E+03   -0.63909E-09   -0.10110E-08 15398   0.528E-04    0.108E-04
RMM:   2    -0.161168289713E+03   -0.14182E-07   -0.60895E-09  4421   0.617E-04    0.597E-05
RMM:   3    -0.161168289709E+03    0.36269E-08    0.00000E+00   167   0.386E-04    0.263E-05
RMM:   4    -0.161168289707E+03    0.18332E-08    0.00000E+00   138   0.361E-04
  24 F= -.16116829E+03 E0= -.16115888E+03  d E =-.577467E-06
       N       E                     dE             d eps       ncg     rms          rms(c)
DAV:   1    -0.161168289707E+03    0.23074E-08   -0.34151E-09 15356   0.340E-04    0.859E-06
RMM:   2    -0.161168289704E+03    0.27181E-08    0.00000E+00   233   0.546E-05    0.667E-07
RMM:   3    -0.161168289704E+03   -0.30252E-09    0.00000E+00   129   0.507E-05    0.481E-07
RMM:   4    -0.161168289704E+03    0.30798E-09    0.00000E+00   109   0.518E-05
  25 F= -.16116829E+03 E0= -.16115888E+03  d E =-.574269E-06
       N       E                     dE             d eps       ncg     rms          rms(c)
DAV:   1    -0.161168289705E+03   -0.56889E-09   -0.17706E-10 15344   0.528E-05    0.137E-05
RMM:   2    -0.161168289705E+03    0.19099E-10    0.00000E+00   227   0.814E-05    0.696E-07
RMM:   3    -0.161168289705E+03   -0.47305E-09    0.00000E+00   122   0.848E-05    0.929E-08
RMM:   4    -0.161168289705E+03    0.32310E-09    0.00000E+00   103   0.844E-05
  26 F= -.16116829E+03 E0= -.16115888E+03  d E =-.575277E-06
       N       E                     dE             d eps       ncg     rms          rms(c)
DAV:   1    -0.161168289705E+03    0.27580E-09   -0.33221E-10 15260   0.847E-05    0.206E-05
RMM:   2    -0.161168289704E+03    0.12321E-08    0.00000E+00   219   0.124E-04    0.165E-07
RMM:   3    -0.161168289703E+03    0.54763E-09    0.00000E+00   112   0.125E-04    0.130E-07
RMM:   4    -0.161168289703E+03    0.27109E-09    0.00000E+00    91   0.125E-04
  27 F= -.16116829E+03 E0= -.16115888E+03  d E =-.573273E-06
       N       E                     dE             d eps       ncg     rms          rms(c)
DAV:   1    -0.161168289703E+03    0.73908E-09   -0.55248E-10 15230   0.125E-04    0.253E-05
RMM:   2    -0.161168289706E+03   -0.31476E-08    0.00000E+00   221   0.139E-04    0.837E-07
RMM:   3    -0.161168289707E+03   -0.11495E-08    0.00000E+00   100   0.143E-04    0.121E-07
RMM:   4    -0.161168289706E+03    0.35834E-09    0.00000E+00    85   0.143E-04
  28 F= -.16116829E+03 E0= -.16115888E+03  d E =-.576744E-06
       N       E                     dE             d eps       ncg     rms          rms(c)
DAV:   1    -0.161168289707E+03    0.13142E-09   -0.74883E-10 15212   0.143E-04    0.295E-05
RMM:   2    -0.161168289703E+03    0.38717E-08    0.00000E+00   203   0.162E-04    0.119E-06
RMM:   3    -0.161168289702E+03    0.38727E-09    0.00000E+00    93   0.167E-04    0.125E-07
RMM:   4    -0.161168289702E+03    0.50227E-09    0.00000E+00    75   0.168E-04
  29 F= -.16116829E+03 E0= -.16115888E+03  d E =-.572210E-06
       N       E                     dE             d eps       ncg     rms          rms(c)
DAV:   1    -0.161168288942E+03    0.76005E-06   -0.50088E-05 29874   0.218E-02    0.153E-03
RMM:   2    -0.161168289203E+03   -0.26063E-06   -0.50852E-06 25034   0.100E-02    0.186E-03
RMM:   3    -0.161168289445E+03   -0.24196E-06   -0.47362E-06 23183   0.968E-03    0.220E-03
RMM:   4    -0.161168289241E+03    0.20358E-06   -0.46039E-06 23246   0.100E-02
  30 F= -.16116829E+03 E0= -.16115888E+03  d E =-.111676E-06
