AlO                                     
           1
     4.834807    0.000000    0.000000
     0.000000    8.319959    0.041393
     0.000000    0.042826    8.565251
   Ti   Si
   8  16
Direct configuration=     1
   0.00000000  0.00000000  0.00000000
   0.75000000  0.75000000  0.25000000
   0.00000000  0.50000000  0.50000000
   0.75000000  0.25000000  0.75000000
   0.50000000  0.00000000  0.50000000
   0.25000000  0.75000000  0.75000000
   0.50000000  0.50000000  0.00000000
   0.25000000  0.25000000  0.25000000
   0.00000000  0.33673444  0.00000000
   0.00000000  0.66326559  0.00000000
   0.75000000  0.08673443  0.25000000
   0.75000000  0.41326556  0.25000000
   0.00000000  0.83673441  0.50000000
   0.00000000  0.16326557  0.50000000
   0.75000000  0.58673441  0.75000000
   0.75000000  0.91326559  0.75000000
   0.50000000  0.33673444  0.50000000
   0.50000000  0.66326559  0.50000000
   0.25000000  0.08673443  0.75000000
   0.25000000  0.41326556  0.75000000
   0.50000000  0.83673441  0.00000000
   0.50000000  0.16326557  0.00000000
   0.25000000  0.58673441  0.25000000
   0.25000000  0.91326559  0.25000000
Direct configuration=     2
  -0.00039140  0.00000000  0.00000000
   0.75039140  0.75000000  0.25000000
  -0.00039140  0.50000000  0.50000000
   0.75039140  0.25000000  0.75000000
   0.49960860  0.00000000  0.50000000
   0.25039140  0.75000000  0.75000000
   0.49960860  0.50000000  0.00000000
   0.25039140  0.25000000  0.25000000
  -0.00014033  0.33671993 -0.00009738
  -0.00014033  0.66328010  0.00009738
   0.75014033  0.08671991  0.24990262
   0.75014033  0.41328007  0.25009738
  -0.00014033  0.83671990  0.49990262
  -0.00014033  0.16328009  0.50009738
   0.75014033  0.58671990  0.74990262
   0.75014033  0.91328010  0.75009738
   0.49985967  0.33671993  0.49990262
   0.49985967  0.66328010  0.50009738
   0.25014033  0.08671991  0.74990262
   0.25014033  0.41328007  0.75009738
   0.49985967  0.83671990 -0.00009738
   0.49985967  0.16328009  0.00009738
   0.25014033  0.58671990  0.24990262
   0.25014033  0.91328010  0.25009738
Direct configuration=     3
  -0.00080550  0.00000000  0.00000000
   0.75080550  0.75000000  0.25000000
  -0.00080550  0.50000000  0.50000000
   0.75080550  0.25000000  0.75000000
   0.49919450  0.00000000  0.50000000
   0.25080550  0.75000000  0.75000000
   0.49919450  0.50000000  0.00000000
   0.25080550  0.25000000  0.25000000
  -0.00028880  0.33670457 -0.00020041
  -0.00028880  0.66329546  0.00020041
   0.75028880  0.08670455  0.24979959
   0.75028880  0.41329543  0.25020041
  -0.00028880  0.83670454  0.49979959
  -0.00028880  0.16329545  0.50020041
   0.75028880  0.58670454  0.74979959
   0.75028880  0.91329546  0.75020041
   0.49971120  0.33670457  0.49979959
   0.49971120  0.66329546  0.50020041
   0.25028880  0.08670455  0.74979959
   0.25028880  0.41329543  0.75020041
   0.49971120  0.83670454 -0.00020041
   0.49971120  0.16329545  0.00020041
   0.25028880  0.58670454  0.24979959
   0.25028880  0.91329546  0.25020041
Direct configuration=     4
  -0.00083819  0.00000000  0.00000000
   0.75083819  0.75000000  0.25000000
  -0.00083819  0.50000000  0.50000000
   0.75083819  0.25000000  0.75000000
   0.49916181  0.00000000  0.50000000
   0.25083819  0.75000000  0.75000000
   0.49916181  0.50000000  0.00000000
   0.25083819  0.25000000  0.25000000
  -0.00030052  0.33670336 -0.00020854
  -0.00030052  0.66329667  0.00020854
   0.75030052  0.08670334  0.24979146
   0.75030052  0.41329664  0.25020854
  -0.00030052  0.83670333  0.49979146
  -0.00030052  0.16329666  0.50020854
   0.75030052  0.58670333  0.74979146
   0.75030052  0.91329667  0.75020854
   0.49969948  0.33670336  0.49979146
   0.49969948  0.66329667  0.50020854
   0.25030052  0.08670334  0.74979146
   0.25030052  0.41329664  0.75020854
   0.49969948  0.83670333 -0.00020854
   0.49969948  0.16329666  0.00020854
   0.25030052  0.58670333  0.24979146
   0.25030052  0.91329667  0.25020854
Direct configuration=     5
  -0.00083683  0.00000000 -0.00000000
   0.75083683  0.75000000  0.25000000
  -0.00083683  0.50000000  0.50000000
   0.75083683  0.25000000  0.75000000
   0.49916317  0.00000000  0.50000000
   0.25083683  0.75000000  0.75000000
   0.49916317  0.50000000 -0.00000000
   0.25083683  0.25000000  0.25000000
  -0.00041390  0.33669054 -0.00019103
  -0.00041390  0.66330949  0.00019103
   0.75041390  0.08669052  0.24980897
   0.75041390  0.41330946  0.25019103
  -0.00041390  0.83669051  0.49980897
  -0.00041390  0.16330948  0.50019103
   0.75041390  0.58669051  0.74980897
   0.75041390  0.91330949  0.75019103
   0.49958610  0.33669054  0.49980897
   0.49958610  0.66330949  0.50019103
   0.25041390  0.08669052  0.74980897
   0.25041390  0.41330946  0.75019103
   0.49958610  0.83669051 -0.00019103
   0.49958610  0.16330948  0.00019103
   0.25041390  0.58669051  0.24980897
   0.25041390  0.91330949  0.25019103
Direct configuration=     6
  -0.00083336  0.00000000 -0.00000000
   0.75083336  0.75000000  0.25000000
  -0.00083336  0.50000000  0.50000000
   0.75083336  0.25000000  0.75000000
   0.49916664  0.00000000  0.50000000
   0.25083336  0.75000000  0.75000000
   0.49916664  0.50000000 -0.00000000
   0.25083336  0.25000000  0.25000000
  -0.00070365  0.33665778 -0.00014629
  -0.00070365  0.66334225  0.00014629
   0.75070365  0.08665776  0.24985371
   0.75070365  0.41334222  0.25014629
  -0.00070365  0.83665775  0.49985371
  -0.00070365  0.16334224  0.50014629
   0.75070365  0.58665775  0.74985371
   0.75070365  0.91334225  0.75014629
   0.49929635  0.33665778  0.49985371
   0.49929635  0.66334225  0.50014629
   0.25070365  0.08665776  0.74985371
   0.25070365  0.41334222  0.75014629
   0.49929635  0.83665775 -0.00014629
   0.49929635  0.16334224  0.00014629
   0.25070365  0.58665775  0.24985371
   0.25070365  0.91334225  0.25014629
Direct configuration=     7
  -0.00083339  0.00000000 -0.00000000
   0.75083339  0.75000000  0.25000000
  -0.00083339  0.50000000  0.50000000
   0.75083339  0.25000000  0.75000000
   0.49916661  0.00000000  0.50000000
   0.25083339  0.75000000  0.75000000
   0.49916661  0.50000000 -0.00000000
   0.25083339  0.25000000  0.25000000
  -0.00070122  0.33665805 -0.00014666
  -0.00070122  0.66334198  0.00014666
   0.75070122  0.08665804  0.24985334
   0.75070122  0.41334195  0.25014666
  -0.00070122  0.83665802  0.49985334
  -0.00070122  0.16334196  0.50014666
   0.75070122  0.58665802  0.74985334
   0.75070122  0.91334198  0.75014666
   0.49929878  0.33665805  0.49985334
   0.49929878  0.66334198  0.50014666
   0.25070122  0.08665804  0.74985334
   0.25070122  0.41334195  0.75014666
   0.49929878  0.83665802 -0.00014666
   0.49929878  0.16334196  0.00014666
   0.25070122  0.58665802  0.24985334
   0.25070122  0.91334198  0.25014666
Direct configuration=     8
  -0.00083337  0.00000000 -0.00000000
   0.75083337  0.75000000  0.25000000
  -0.00083337  0.50000000  0.50000000
   0.75083337  0.25000000  0.75000000
   0.49916663  0.00000000  0.50000000
   0.25083337  0.75000000  0.75000000
   0.49916663  0.50000000 -0.00000000
   0.25083337  0.25000000  0.25000000
  -0.00070275  0.33665788 -0.00014643
  -0.00070275  0.66334215  0.00014643
   0.75070275  0.08665786  0.24985357
   0.75070275  0.41334212  0.25014643
  -0.00070275  0.83665785  0.49985357
  -0.00070275  0.16334214  0.50014643
   0.75070275  0.58665785  0.74985357
   0.75070275  0.91334215  0.75014643
   0.49929725  0.33665788  0.49985357
   0.49929725  0.66334215  0.50014643
   0.25070275  0.08665786  0.74985357
   0.25070275  0.41334212  0.75014643
   0.49929725  0.83665785 -0.00014643
   0.49929725  0.16334214  0.00014643
   0.25070275  0.58665785  0.24985357
   0.25070275  0.91334215  0.25014643
Direct configuration=     9
  -0.00083337  0.00000000 -0.00000000
   0.75083337  0.75000000  0.25000000
  -0.00083337  0.50000000  0.50000000
   0.75083337  0.25000000  0.75000000
   0.49916663  0.00000000  0.50000000
   0.25083337  0.75000000  0.75000000
   0.49916663  0.50000000 -0.00000000
   0.25083337  0.25000000  0.25000000
  -0.00070305  0.33665785 -0.00014638
  -0.00070305  0.66334218  0.00014638
   0.75070305  0.08665783  0.24985362
   0.75070305  0.41334215  0.25014638
  -0.00070305  0.83665782  0.49985362
  -0.00070305  0.16334217  0.50014638
   0.75070305  0.58665782  0.74985362
   0.75070305  0.91334218  0.75014638
   0.49929695  0.33665785  0.49985362
   0.49929695  0.66334218  0.50014638
   0.25070305  0.08665783  0.74985362
   0.25070305  0.41334215  0.75014638
   0.49929695  0.83665782 -0.00014638
   0.49929695  0.16334217  0.00014638
   0.25070305  0.58665782  0.24985362
   0.25070305  0.91334218  0.25014638
Direct configuration=    10
  -0.00083336  0.00000000 -0.00000000
   0.75083336  0.75000000  0.25000000
  -0.00083336  0.50000000  0.50000000
   0.75083336  0.25000000  0.75000000
   0.49916664  0.00000000  0.50000000
   0.25083336  0.75000000  0.75000000
   0.49916664  0.50000000 -0.00000000
   0.25083336  0.25000000  0.25000000
  -0.00070311  0.33665784 -0.00014637
  -0.00070311  0.66334219  0.00014637
   0.75070311  0.08665782  0.24985363
   0.75070311  0.41334216  0.25014637
  -0.00070311  0.83665781  0.49985363
  -0.00070311  0.16334218  0.50014637
   0.75070311  0.58665781  0.74985363
   0.75070311  0.91334219  0.75014637
   0.49929689  0.33665784  0.49985363
   0.49929689  0.66334219  0.50014637
   0.25070311  0.08665782  0.74985363
   0.25070311  0.41334216  0.75014637
   0.49929689  0.83665781 -0.00014637
   0.49929689  0.16334218  0.00014637
   0.25070311  0.58665781  0.24985363
   0.25070311  0.91334219  0.25014637
Direct configuration=    11
  -0.00083336  0.00000000 -0.00000000
   0.75083336  0.75000000  0.25000000
  -0.00083336  0.50000000  0.50000000
   0.75083336  0.25000000  0.75000000
   0.49916664  0.00000000  0.50000000
   0.25083336  0.75000000  0.75000000
   0.49916664  0.50000000 -0.00000000
   0.25083336  0.25000000  0.25000000
  -0.00070338  0.33665781 -0.00014633
  -0.00070338  0.66334222  0.00014633
   0.75070338  0.08665779  0.24985367
   0.75070338  0.41334219  0.25014633
  -0.00070338  0.83665778  0.49985367
  -0.00070338  0.16334221  0.50014633
   0.75070338  0.58665778  0.74985367
   0.75070338  0.91334222  0.75014633
   0.49929662  0.33665781  0.49985367
   0.49929662  0.66334222  0.50014633
   0.25070338  0.08665779  0.74985367
   0.25070338  0.41334219  0.75014633
   0.49929662  0.83665778 -0.00014633
   0.49929662  0.16334221  0.00014633
   0.25070338  0.58665778  0.24985367
   0.25070338  0.91334222  0.25014633
Direct configuration=    12
  -0.00083378  0.00000000 -0.00000000
   0.75083378  0.75000000  0.25000000
  -0.00083378  0.50000000  0.50000000
   0.75083378  0.25000000  0.75000000
   0.49916622  0.00000000  0.50000000
   0.25083378  0.75000000  0.75000000
   0.49916622  0.50000000 -0.00000000
   0.25083378  0.25000000  0.25000000
  -0.00070250  0.33665381 -0.00014640
  -0.00070250  0.66334622  0.00014640
   0.75070250  0.08665379  0.24985360
   0.75070250  0.41334619  0.25014640
  -0.00070250  0.83665378  0.49985360
  -0.00070250  0.16334621  0.50014640
   0.75070250  0.58665378  0.74985360
   0.75070250  0.91334622  0.75014640
   0.49929750  0.33665381  0.49985360
   0.49929750  0.66334622  0.50014640
   0.25070250  0.08665379  0.74985360
   0.25070250  0.41334619  0.75014640
   0.49929750  0.83665378 -0.00014640
   0.49929750  0.16334621  0.00014640
   0.25070250  0.58665378  0.24985360
   0.25070250  0.91334622  0.25014640
Direct configuration=    13
  -0.00083481  0.00000000 -0.00000000
   0.75083481  0.75000000  0.25000000
  -0.00083481  0.50000000  0.50000000
   0.75083481  0.25000000  0.75000000
   0.49916519  0.00000000  0.50000000
   0.25083481  0.75000000  0.75000000
   0.49916519  0.50000000 -0.00000000
   0.25083481  0.25000000  0.25000000
  -0.00070039  0.33664417 -0.00014658
  -0.00070039  0.66335586  0.00014658
   0.75070039  0.08664416  0.24985342
   0.75070039  0.41335583  0.25014658
  -0.00070039  0.83664414  0.49985342
  -0.00070039  0.16335584  0.50014658
   0.75070039  0.58664414  0.74985342
   0.75070039  0.91335586  0.75014658
   0.49929961  0.33664417  0.49985342
   0.49929961  0.66335586  0.50014658
   0.25070039  0.08664416  0.74985342
   0.25070039  0.41335583  0.75014658
   0.49929961  0.83664414 -0.00014658
   0.49929961  0.16335584  0.00014658
   0.25070039  0.58664414  0.24985342
   0.25070039  0.91335586  0.25014658
Direct configuration=    14
  -0.00083466  0.00000000 -0.00000000
   0.75083466  0.75000000  0.25000000
  -0.00083466  0.50000000  0.50000000
   0.75083466  0.25000000  0.75000000
   0.49916534  0.00000000  0.50000000
   0.25083466  0.75000000  0.75000000
   0.49916534  0.50000000 -0.00000000
   0.25083466  0.25000000  0.25000000
  -0.00070070  0.33664559 -0.00014655
  -0.00070070  0.66335444  0.00014655
   0.75070070  0.08664558  0.24985345
   0.75070070  0.41335441  0.25014655
  -0.00070070  0.83664556  0.49985345
  -0.00070070  0.16335442  0.50014655
   0.75070070  0.58664556  0.74985345
   0.75070070  0.91335444  0.75014655
   0.49929930  0.33664559  0.49985345
   0.49929930  0.66335444  0.50014655
   0.25070070  0.08664558  0.74985345
   0.25070070  0.41335441  0.75014655
   0.49929930  0.83664556 -0.00014655
   0.49929930  0.16335442  0.00014655
   0.25070070  0.58664556  0.24985345
   0.25070070  0.91335444  0.25014655
Direct configuration=    15
  -0.00083474  0.00000000 -0.00000000
   0.75083474  0.75000000  0.25000000
  -0.00083474  0.50000000  0.50000000
   0.75083474  0.25000000  0.75000000
   0.49916526  0.00000000  0.50000000
   0.25083474  0.75000000  0.75000000
   0.49916526  0.50000000 -0.00000000
   0.25083474  0.25000000  0.25000000
  -0.00070053  0.33664481 -0.00014656
  -0.00070053  0.66335522  0.00014656
   0.75070053  0.08664480  0.24985344
   0.75070053  0.41335519  0.25014656
  -0.00070053  0.83664478  0.49985344
  -0.00070053  0.16335520  0.50014656
   0.75070053  0.58664478  0.74985344
   0.75070053  0.91335522  0.75014656
   0.49929947  0.33664481  0.49985344
   0.49929947  0.66335522  0.50014656
   0.25070053  0.08664480  0.74985344
   0.25070053  0.41335519  0.75014656
   0.49929947  0.83664478 -0.00014656
   0.49929947  0.16335520  0.00014656
   0.25070053  0.58664478  0.24985344
   0.25070053  0.91335522  0.25014656
Direct configuration=    16
  -0.00083471  0.00000000 -0.00000000
   0.75083471  0.75000000  0.25000000
  -0.00083471  0.50000000  0.50000000
   0.75083471  0.25000000  0.75000000
   0.49916529  0.00000000  0.50000000
   0.25083471  0.75000000  0.75000000
   0.49916529  0.50000000 -0.00000000
   0.25083471  0.25000000  0.25000000
  -0.00070060  0.33664510 -0.00014656
  -0.00070060  0.66335493  0.00014656
   0.75070060  0.08664508  0.24985344
   0.75070060  0.41335490  0.25014656
  -0.00070060  0.83664507  0.49985344
  -0.00070060  0.16335492  0.50014656
   0.75070060  0.58664507  0.74985344
   0.75070060  0.91335493  0.75014656
   0.49929940  0.33664510  0.49985344
   0.49929940  0.66335493  0.50014656
   0.25070060  0.08664508  0.74985344
   0.25070060  0.41335490  0.75014656
   0.49929940  0.83664507 -0.00014656
   0.49929940  0.16335492  0.00014656
   0.25070060  0.58664507  0.24985344
   0.25070060  0.91335493  0.25014656
Direct configuration=    17
  -0.00083473  0.00000000 -0.00000000
   0.75083473  0.75000000  0.25000000
  -0.00083473  0.50000000  0.50000000
   0.75083473  0.25000000  0.75000000
   0.49916527  0.00000000  0.50000000
   0.25083473  0.75000000  0.75000000
   0.49916527  0.50000000 -0.00000000
   0.25083473  0.25000000  0.25000000
  -0.00070056  0.33664493 -0.00014656
  -0.00070056  0.66335510  0.00014656
   0.75070056  0.08664491  0.24985344
   0.75070056  0.41335507  0.25014656
  -0.00070056  0.83664490  0.49985344
  -0.00070056  0.16335509  0.50014656
   0.75070056  0.58664490  0.74985344
   0.75070056  0.91335510  0.75014656
   0.49929944  0.33664493  0.49985344
   0.49929944  0.66335510  0.50014656
   0.25070056  0.08664491  0.74985344
   0.25070056  0.41335507  0.75014656
   0.49929944  0.83664490 -0.00014656
   0.49929944  0.16335509  0.00014656
   0.25070056  0.58664490  0.24985344
   0.25070056  0.91335510  0.25014656
Direct configuration=    18
  -0.00083473  0.00000000 -0.00000000
   0.75083473  0.75000000  0.25000000
  -0.00083473  0.50000000  0.50000000
   0.75083473  0.25000000  0.75000000
   0.49916527  0.00000000  0.50000000
   0.25083473  0.75000000  0.75000000
   0.49916527  0.50000000 -0.00000000
   0.25083473  0.25000000  0.25000000
  -0.00070055  0.33664491 -0.00014656
  -0.00070055  0.66335512  0.00014656
   0.75070055  0.08664489  0.24985344
   0.75070055  0.41335509  0.25014656
  -0.00070055  0.83664488  0.49985344
  -0.00070055  0.16335511  0.50014656
   0.75070055  0.58664488  0.74985344
   0.75070055  0.91335512  0.75014656
   0.49929945  0.33664491  0.49985344
   0.49929945  0.66335512  0.50014656
   0.25070055  0.08664489  0.74985344
   0.25070055  0.41335509  0.75014656
   0.49929945  0.83664488 -0.00014656
   0.49929945  0.16335511  0.00014656
   0.25070055  0.58664488  0.24985344
   0.25070055  0.91335512  0.25014656
Direct configuration=    19
  -0.00083473  0.00000000 -0.00000000
   0.75083473  0.75000000  0.25000000
  -0.00083473  0.50000000  0.50000000
   0.75083473  0.25000000  0.75000000
   0.49916527  0.00000000  0.50000000
   0.25083473  0.75000000  0.75000000
   0.49916527  0.50000000 -0.00000000
   0.25083473  0.25000000  0.25000000
  -0.00070054  0.33664486 -0.00014656
  -0.00070054  0.66335517  0.00014656
   0.75070054  0.08664484  0.24985344
   0.75070054  0.41335514  0.25014656
  -0.00070054  0.83664483  0.49985344
  -0.00070054  0.16335516  0.50014656
   0.75070054  0.58664483  0.74985344
   0.75070054  0.91335517  0.75014656
   0.49929946  0.33664486  0.49985344
   0.49929946  0.66335517  0.50014656
   0.25070054  0.08664484  0.74985344
   0.25070054  0.41335514  0.75014656
   0.49929946  0.83664483 -0.00014656
   0.49929946  0.16335516  0.00014656
   0.25070054  0.58664483  0.24985344
   0.25070054  0.91335517  0.25014656
Direct configuration=    20
  -0.00083474  0.00000000 -0.00000000
   0.75083474  0.75000000  0.25000000
  -0.00083474  0.50000000  0.50000000
   0.75083474  0.25000000  0.75000000
   0.49916526  0.00000000  0.50000000
   0.25083474  0.75000000  0.75000000
   0.49916526  0.50000000 -0.00000000
   0.25083474  0.25000000  0.25000000
  -0.00070054  0.33664483 -0.00014656
  -0.00070054  0.66335520  0.00014656
   0.75070054  0.08664482  0.24985344
   0.75070054  0.41335517  0.25014656
  -0.00070054  0.83664480  0.49985344
  -0.00070054  0.16335518  0.50014656
   0.75070054  0.58664480  0.74985344
   0.75070054  0.91335520  0.75014656
   0.49929946  0.33664483  0.49985344
   0.49929946  0.66335520  0.50014656
   0.25070054  0.08664482  0.74985344
   0.25070054  0.41335517  0.75014656
   0.49929946  0.83664480 -0.00014656
   0.49929946  0.16335518  0.00014656
   0.25070054  0.58664480  0.24985344
   0.25070054  0.91335520  0.25014656
Direct configuration=    21
  -0.00083474  0.00000000 -0.00000000
   0.75083474  0.75000000  0.25000000
  -0.00083474  0.50000000  0.50000000
   0.75083474  0.25000000  0.75000000
   0.49916526  0.00000000  0.50000000
   0.25083474  0.75000000  0.75000000
   0.49916526  0.50000000 -0.00000000
   0.25083474  0.25000000  0.25000000
  -0.00070053  0.33664482 -0.00014656
  -0.00070053  0.66335521  0.00014656
   0.75070053  0.08664481  0.24985344
   0.75070053  0.41335518  0.25014656
  -0.00070053  0.83664479  0.49985344
  -0.00070053  0.16335519  0.50014656
   0.75070053  0.58664479  0.74985344
   0.75070053  0.91335521  0.75014656
   0.49929947  0.33664482  0.49985344
   0.49929947  0.66335521  0.50014656
   0.25070053  0.08664481  0.74985344
   0.25070053  0.41335518  0.75014656
   0.49929947  0.83664479 -0.00014656
   0.49929947  0.16335519  0.00014656
   0.25070053  0.58664479  0.24985344
   0.25070053  0.91335521  0.25014656
Direct configuration=    22
  -0.00083474  0.00000000 -0.00000000
   0.75083474  0.75000000  0.25000000
  -0.00083474  0.50000000  0.50000000
   0.75083474  0.25000000  0.75000000
   0.49916526  0.00000000  0.50000000
   0.25083474  0.75000000  0.75000000
   0.49916526  0.50000000 -0.00000000
   0.25083474  0.25000000  0.25000000
  -0.00070053  0.33664482 -0.00014656
  -0.00070053  0.66335521  0.00014656
   0.75070053  0.08664480  0.24985344
   0.75070053  0.41335518  0.25014656
  -0.00070053  0.83664479  0.49985344
  -0.00070053  0.16335520  0.50014656
   0.75070053  0.58664479  0.74985344
   0.75070053  0.91335521  0.75014656
   0.49929947  0.33664482  0.49985344
   0.49929947  0.66335521  0.50014656
   0.25070053  0.08664480  0.74985344
   0.25070053  0.41335518  0.75014656
   0.49929947  0.83664479 -0.00014656
   0.49929947  0.16335520  0.00014656
   0.25070053  0.58664479  0.24985344
   0.25070053  0.91335521  0.25014656
Direct configuration=    23
  -0.00083474  0.00000000 -0.00000000
   0.75083474  0.75000000  0.25000000
  -0.00083474  0.50000000  0.50000000
   0.75083474  0.25000000  0.75000000
   0.49916526  0.00000000  0.50000000
   0.25083474  0.75000000  0.75000000
   0.49916526  0.50000000 -0.00000000
   0.25083474  0.25000000  0.25000000
  -0.00070053  0.33664481 -0.00014656
  -0.00070053  0.66335522  0.00014656
   0.75070053  0.08664480  0.24985344
   0.75070053  0.41335519  0.25014656
  -0.00070053  0.83664478  0.49985344
  -0.00070053  0.16335520  0.50014656
   0.75070053  0.58664478  0.74985344
   0.75070053  0.91335522  0.75014656
   0.49929947  0.33664481  0.49985344
   0.49929947  0.66335522  0.50014656
   0.25070053  0.08664480  0.74985344
   0.25070053  0.41335519  0.75014656
   0.49929947  0.83664478 -0.00014656
   0.49929947  0.16335520  0.00014656
   0.25070053  0.58664478  0.24985344
   0.25070053  0.91335522  0.25014656
Direct configuration=    24
  -0.00083474  0.00000000 -0.00000000
   0.75083474  0.75000000  0.25000000
  -0.00083474  0.50000000  0.50000000
   0.75083474  0.25000000  0.75000000
   0.49916526  0.00000000  0.50000000
   0.25083474  0.75000000  0.75000000
   0.49916526  0.50000000 -0.00000000
   0.25083474  0.25000000  0.25000000
  -0.00070053  0.33664481 -0.00014656
  -0.00070053  0.66335522  0.00014656
   0.75070053  0.08664480  0.24985344
   0.75070053  0.41335519  0.25014656
  -0.00070053  0.83664478  0.49985344
  -0.00070053  0.16335520  0.50014656
   0.75070053  0.58664478  0.74985344
   0.75070053  0.91335522  0.75014656
   0.49929947  0.33664481  0.49985344
   0.49929947  0.66335522  0.50014656
   0.25070053  0.08664480  0.74985344
   0.25070053  0.41335519  0.75014656
   0.49929947  0.83664478 -0.00014656
   0.49929947  0.16335520  0.00014656
   0.25070053  0.58664478  0.24985344
   0.25070053  0.91335522  0.25014656
Direct configuration=    25
  -0.00083474  0.00000000 -0.00000000
   0.75083474  0.75000000  0.25000000
  -0.00083474  0.50000000  0.50000000
   0.75083474  0.25000000  0.75000000
   0.49916526  0.00000000  0.50000000
   0.25083474  0.75000000  0.75000000
   0.49916526  0.50000000 -0.00000000
   0.25083474  0.25000000  0.25000000
  -0.00070053  0.33664481 -0.00014656
  -0.00070053  0.66335522  0.00014656
   0.75070053  0.08664480  0.24985344
   0.75070053  0.41335519  0.25014656
  -0.00070053  0.83664478  0.49985344
  -0.00070053  0.16335520  0.50014656
   0.75070053  0.58664478  0.74985344
   0.75070053  0.91335522  0.75014656
   0.49929947  0.33664481  0.49985344
   0.49929947  0.66335522  0.50014656
   0.25070053  0.08664480  0.74985344
   0.25070053  0.41335519  0.75014656
   0.49929947  0.83664478 -0.00014656
   0.49929947  0.16335520  0.00014656
   0.25070053  0.58664478  0.24985344
   0.25070053  0.91335522  0.25014656
Direct configuration=    26
  -0.00083474  0.00000000 -0.00000000
   0.75083474  0.75000000  0.25000000
  -0.00083474  0.50000000  0.50000000
   0.75083474  0.25000000  0.75000000
   0.49916526  0.00000000  0.50000000
   0.25083474  0.75000000  0.75000000
   0.49916526  0.50000000 -0.00000000
   0.25083474  0.25000000  0.25000000
  -0.00070053  0.33664481 -0.00014656
  -0.00070053  0.66335522  0.00014656
   0.75070053  0.08664480  0.24985344
   0.75070053  0.41335519  0.25014656
  -0.00070053  0.83664478  0.49985344
  -0.00070053  0.16335520  0.50014656
   0.75070053  0.58664478  0.74985344
   0.75070053  0.91335522  0.75014656
   0.49929947  0.33664481  0.49985344
   0.49929947  0.66335522  0.50014656
   0.25070053  0.08664480  0.74985344
   0.25070053  0.41335519  0.75014656
   0.49929947  0.83664478 -0.00014656
   0.49929947  0.16335520  0.00014656
   0.25070053  0.58664478  0.24985344
   0.25070053  0.91335522  0.25014656
Direct configuration=    27
  -0.00083474  0.00000000 -0.00000000
   0.75083474  0.75000000  0.25000000
  -0.00083474  0.50000000  0.50000000
   0.75083474  0.25000000  0.75000000
   0.49916526  0.00000000  0.50000000
   0.25083474  0.75000000  0.75000000
   0.49916526  0.50000000 -0.00000000
   0.25083474  0.25000000  0.25000000
  -0.00070053  0.33664481 -0.00014656
  -0.00070053  0.66335522  0.00014656
   0.75070053  0.08664480  0.24985344
   0.75070053  0.41335519  0.25014656
  -0.00070053  0.83664478  0.49985344
  -0.00070053  0.16335520  0.50014656
   0.75070053  0.58664478  0.74985344
   0.75070053  0.91335522  0.75014656
   0.49929947  0.33664481  0.49985344
   0.49929947  0.66335522  0.50014656
   0.25070053  0.08664480  0.74985344
   0.25070053  0.41335519  0.75014656
   0.49929947  0.83664478 -0.00014656
   0.49929947  0.16335520  0.00014656
   0.25070053  0.58664478  0.24985344
   0.25070053  0.91335522  0.25014656
Direct configuration=    28
  -0.00083474  0.00000000 -0.00000000
   0.75083474  0.75000000  0.25000000
  -0.00083474  0.50000000  0.50000000
   0.75083474  0.25000000  0.75000000
   0.49916526  0.00000000  0.50000000
   0.25083474  0.75000000  0.75000000
   0.49916526  0.50000000 -0.00000000
   0.25083474  0.25000000  0.25000000
  -0.00070053  0.33664481 -0.00014656
  -0.00070053  0.66335522  0.00014656
   0.75070053  0.08664480  0.24985344
   0.75070053  0.41335519  0.25014656
  -0.00070053  0.83664478  0.49985344
  -0.00070053  0.16335520  0.50014656
   0.75070053  0.58664478  0.74985344
   0.75070053  0.91335522  0.75014656
   0.49929947  0.33664481  0.49985344
   0.49929947  0.66335522  0.50014656
   0.25070053  0.08664480  0.74985344
   0.25070053  0.41335519  0.75014656
   0.49929947  0.83664478 -0.00014656
   0.49929947  0.16335520  0.00014656
   0.25070053  0.58664478  0.24985344
   0.25070053  0.91335522  0.25014656
Direct configuration=    29
  -0.00083474  0.00000000 -0.00000000
   0.75083474  0.75000000  0.25000000
  -0.00083474  0.50000000  0.50000000
   0.75083474  0.25000000  0.75000000
   0.49916526  0.00000000  0.50000000
   0.25083474  0.75000000  0.75000000
   0.49916526  0.50000000 -0.00000000
   0.25083474  0.25000000  0.25000000
  -0.00070053  0.33664481 -0.00014656
  -0.00070053  0.66335522  0.00014656
   0.75070053  0.08664480  0.24985344
   0.75070053  0.41335519  0.25014656
  -0.00070053  0.83664478  0.49985344
  -0.00070053  0.16335520  0.50014656
   0.75070053  0.58664478  0.74985344
   0.75070053  0.91335522  0.75014656
   0.49929947  0.33664481  0.49985344
   0.49929947  0.66335522  0.50014656
   0.25070053  0.08664480  0.74985344
   0.25070053  0.41335519  0.75014656
   0.49929947  0.83664478 -0.00014656
   0.49929947  0.16335520  0.00014656
   0.25070053  0.58664478  0.24985344
   0.25070053  0.91335522  0.25014656
