       N       E                     dE             d eps       ncg     rms          rms(c)
DAV:   1     0.561396613273E+03    0.56140E+03   -0.30485E+04 29736   0.122E+03
DAV:   2    -0.647831982350E+02   -0.62618E+03   -0.60376E+03 29512   0.298E+02
DAV:   3    -0.170073214765E+03   -0.10529E+03   -0.98864E+02 41276   0.104E+02
DAV:   4    -0.174940251591E+03   -0.48670E+01   -0.48015E+01 37624   0.243E+01
DAV:   5    -0.175036912911E+03   -0.96661E-01   -0.96326E-01 37506   0.352E+00    0.194E+01
RMM:   6    -0.163227113845E+03    0.11810E+02   -0.12920E+02 29645   0.411E+01    0.527E+00
RMM:   7    -0.161591407442E+03    0.16357E+01   -0.36179E+00 29536   0.755E+00    0.319E+00
RMM:   8    -0.161627513641E+03   -0.36106E-01   -0.67111E+00 29618   0.876E+00    0.282E+00
RMM:   9    -0.161189417938E+03    0.43810E+00   -0.31444E+00 29512   0.698E+00    0.654E-01
RMM:  10    -0.161169458796E+03    0.19959E-01   -0.10901E-01 29866   0.127E+00    0.319E-01
RMM:  11    -0.161164894175E+03    0.45646E-02   -0.19213E-02 29638   0.535E-01    0.105E-01
RMM:  12    -0.161164899469E+03   -0.52935E-05   -0.75230E-03 30436   0.239E-01    0.373E-02
RMM:  13    -0.161164858965E+03    0.40504E-04   -0.52181E-04 30262   0.956E-02    0.393E-02
RMM:  14    -0.161164798581E+03    0.60384E-04   -0.34167E-04 29610   0.702E-02    0.659E-03
RMM:  15    -0.161164804906E+03   -0.63251E-05   -0.80203E-05 31390   0.179E-02    0.451E-03
RMM:  16    -0.161164803475E+03    0.14314E-05   -0.22954E-06 20344   0.436E-03    0.268E-03
RMM:  17    -0.161164802934E+03    0.54010E-06   -0.41366E-06 22336   0.753E-03
   1 F= -.16116480E+03 E0= -.16115567E+03  d E =-.161165E+03
       N       E                     dE             d eps       ncg     rms          rms(c)
DAV:   1    -0.161166200755E+03   -0.13973E-02   -0.29986E-02 33330   0.523E-01    0.414E-02
RMM:   2    -0.161166213048E+03   -0.12294E-04   -0.58164E-04 29742   0.929E-02    0.311E-02
RMM:   3    -0.161166180143E+03    0.32905E-04   -0.99489E-05 30274   0.299E-02    0.911E-03
RMM:   4    -0.161166179657E+03    0.48581E-06   -0.45252E-05 30010   0.234E-02    0.312E-03
RMM:   5    -0.161166178949E+03    0.70801E-06   -0.28219E-06 20344   0.455E-03
   2 F= -.16116618E+03 E0= -.16115706E+03  d E =-.137601E-02
       N       E                     dE             d eps       ncg     rms          rms(c)
DAV:   1    -0.161166687482E+03   -0.50782E-03   -0.32664E-02 32338   0.545E-01    0.432E-02
RMM:   2    -0.161166655680E+03    0.31802E-04   -0.50836E-04 29587   0.904E-02    0.222E-03
RMM:   3    -0.161166661185E+03   -0.55048E-05   -0.51209E-05 34206   0.206E-02    0.277E-03
RMM:   4    -0.161166660606E+03    0.57857E-06   -0.17293E-06 18298   0.570E-03
   3 F= -.16116666E+03 E0= -.16115755E+03  d E =-.185767E-02
       N       E                     dE             d eps       ncg     rms          rms(c)
DAV:   1    -0.161166791054E+03   -0.12987E-03   -0.15602E-03 32772   0.125E-01    0.692E-03
RMM:   2    -0.161166801952E+03   -0.10898E-04   -0.10326E-04 29512   0.456E-02    0.760E-03
RMM:   3    -0.161166799315E+03    0.26379E-05   -0.89285E-06 29499   0.125E-02    0.324E-03
RMM:   4    -0.161166798296E+03    0.10181E-05   -0.17528E-06 17254   0.412E-03    0.161E-03
RMM:   5    -0.161166798154E+03    0.14228E-06   -0.14188E-06 17005   0.400E-03
   4 F= -.16116680E+03 E0= -.16115769E+03  d E =-.137548E-03
       N       E                     dE             d eps       ncg     rms          rms(c)
DAV:   1    -0.161166892970E+03   -0.94674E-04   -0.87731E-03 32080   0.296E-01    0.166E-02
RMM:   2    -0.161166930385E+03   -0.37415E-04   -0.45362E-04 29512   0.978E-02    0.337E-03
RMM:   3    -0.161166933431E+03   -0.30460E-05   -0.30026E-05 32827   0.216E-02    0.165E-03
RMM:   4    -0.161166933602E+03   -0.17109E-06   -0.16818E-06 18481   0.585E-03
   5 F= -.16116693E+03 E0= -.16115781E+03  d E =-.272996E-03
       N       E                     dE             d eps       ncg     rms          rms(c)
DAV:   1    -0.161166933750E+03   -0.31934E-06   -0.65318E-07 22916   0.346E-03    0.635E-04
RMM:   2    -0.161166933724E+03    0.26240E-07   -0.12853E-07 13462   0.183E-03    0.501E-04
RMM:   3    -0.161166933699E+03    0.25147E-07   -0.27239E-08  8547   0.106E-03    0.408E-04
RMM:   4    -0.161166933677E+03    0.21952E-07   -0.15047E-08  6111   0.793E-04
   6 F= -.16116693E+03 E0= -.16115781E+03  d E =-.273071E-03
       N       E                     dE             d eps       ncg     rms          rms(c)
DAV:   1    -0.161166933655E+03    0.43705E-07   -0.63465E-08 17660   0.967E-04    0.200E-04
RMM:   2    -0.161166933657E+03   -0.17553E-08   -0.31104E-10  2323   0.565E-04    0.110E-04
RMM:   3    -0.161166933653E+03    0.39191E-08   -0.14689E-09  1981   0.649E-04    0.804E-05
RMM:   4    -0.161166933646E+03    0.70632E-08   -0.29961E-09  2066   0.703E-04
   7 F= -.16116693E+03 E0= -.16115781E+03  d E =-.273040E-03
       N       E                     dE             d eps       ncg     rms          rms(c)
DAV:   1    -0.161166933650E+03    0.22933E-08   -0.19757E-08 17918   0.668E-04    0.775E-05
RMM:   2    -0.161166933663E+03   -0.12805E-07   -0.87682E-27  1081   0.368E-04    0.634E-05
RMM:   3    -0.161166933674E+03   -0.10727E-07    0.00000E+00   868   0.417E-04    0.481E-05
RMM:   4    -0.161166933668E+03    0.59794E-08   -0.48047E-15   816   0.472E-04
   8 F= -.16116693E+03 E0= -.16115781E+03  d E =-.273062E-03
       N       E                     dE             d eps       ncg     rms          rms(c)
DAV:   1    -0.161166933670E+03    0.42649E-08   -0.88975E-09 16976   0.515E-04    0.549E-05
RMM:   2    -0.161166933655E+03    0.14512E-07    0.00000E+00   784   0.217E-04    0.469E-05
RMM:   3    -0.161166933658E+03   -0.24585E-08    0.00000E+00   657   0.269E-04    0.306E-05
RMM:   4    -0.161166933657E+03    0.22527E-09    0.00000E+00   586   0.297E-04
   9 F= -.16116693E+03 E0= -.16115781E+03  d E =-.273051E-03
       N       E                     dE             d eps       ncg     rms          rms(c)
DAV:   1    -0.161166933657E+03    0.21976E-09   -0.33475E-09 17078   0.330E-04    0.357E-05
RMM:   2    -0.161166933665E+03   -0.71106E-08    0.00000E+00   701   0.213E-04    0.143E-05
RMM:   3    -0.161166933665E+03   -0.79831E-09    0.00000E+00   550   0.236E-04    0.100E-05
RMM:   4    -0.161166933665E+03    0.52319E-09    0.00000E+00   502   0.255E-04
  10 F= -.16116693E+03 E0= -.16115781E+03  d E =-.273059E-03
       N       E                     dE             d eps       ncg     rms          rms(c)
DAV:   1    -0.161166933664E+03    0.13629E-08   -0.21260E-09 16394   0.259E-04    0.414E-05
RMM:   2    -0.161166933660E+03    0.44265E-08    0.00000E+00   598   0.161E-04    0.228E-05
RMM:   3    -0.161166933659E+03    0.43150E-09    0.00000E+00   444   0.189E-04    0.168E-05
RMM:   4    -0.161166933659E+03    0.77648E-10    0.00000E+00   405   0.227E-04
  11 F= -.16116693E+03 E0= -.16115781E+03  d E =-.273053E-03
       N       E                     dE             d eps       ncg     rms          rms(c)
DAV:   1    -0.161166933658E+03    0.13227E-08   -0.22667E-09 16370   0.258E-04    0.475E-05
RMM:   2    -0.161166933662E+03   -0.42714E-08    0.00000E+00   561   0.202E-04    0.177E-05
RMM:   3    -0.161166933664E+03   -0.14692E-08    0.00000E+00   394   0.241E-04    0.101E-05
RMM:   4    -0.161166933663E+03    0.22681E-10    0.00000E+00   356   0.270E-04
  12 F= -.16116693E+03 E0= -.16115781E+03  d E =-.273057E-03
       N       E                     dE             d eps       ncg     rms          rms(c)
DAV:   1    -0.161166933665E+03   -0.11941E-08   -0.27654E-09 16028   0.284E-04    0.537E-05
RMM:   2    -0.161166933657E+03    0.75417E-08    0.00000E+00   516   0.308E-04    0.249E-06
RMM:   3    -0.161166933657E+03    0.21186E-09    0.00000E+00   337   0.320E-04    0.206E-06
RMM:   4    -0.161166933655E+03    0.15164E-08    0.00000E+00   305   0.321E-04
  13 F= -.16116693E+03 E0= -.16115781E+03  d E =-.273049E-03
       N       E                     dE             d eps       ncg     rms          rms(c)
DAV:   1    -0.161166933657E+03    0.30258E-09   -0.36511E-09 16070   0.319E-04    0.658E-05
RMM:   2    -0.161166933665E+03   -0.80083E-08    0.00000E+00   492   0.367E-04    0.309E-06
RMM:   3    -0.161166933665E+03   -0.54666E-09    0.00000E+00   303   0.380E-04    0.133E-06
RMM:   4    -0.161166933664E+03    0.11077E-08    0.00000E+00   282   0.382E-04
  14 F= -.16116693E+03 E0= -.16115781E+03  d E =-.273058E-03
       N       E                     dE             d eps       ncg     rms          rms(c)
DAV:   1    -0.161166933666E+03   -0.54246E-09   -0.52361E-09 15764   0.381E-04    0.777E-05
RMM:   2    -0.161166933655E+03    0.10822E-07    0.00000E+00   442   0.438E-04    0.192E-06
RMM:   3    -0.161166933655E+03    0.20765E-09    0.00000E+00   276   0.448E-04    0.573E-07
RMM:   4    -0.161166933654E+03    0.35908E-09    0.00000E+00   244   0.447E-04
  15 F= -.16116693E+03 E0= -.16115781E+03  d E =-.273048E-03
       N       E                     dE             d eps       ncg     rms          rms(c)
DAV:   1    -0.161166933654E+03    0.40421E-09   -0.71940E-09 15854   0.447E-04    0.911E-05
RMM:   2    -0.161166933667E+03   -0.12316E-07    0.00000E+00   465   0.513E-04    0.176E-06
RMM:   3    -0.161166933666E+03    0.61209E-09    0.00000E+00   266   0.522E-04    0.131E-07
RMM:   4    -0.161166933666E+03   -0.37437E-09    0.00000E+00   229   0.521E-04
  16 F= -.16116693E+03 E0= -.16115781E+03  d E =-.273060E-03
       N       E                     dE             d eps       ncg     rms          rms(c)
DAV:   1    -0.161166933668E+03   -0.19554E-08   -0.98220E-09 15704   0.522E-04    0.106E-04
RMM:   2    -0.161166933652E+03    0.16280E-07   -0.44760E-09  3359   0.602E-04    0.435E-05
RMM:   3    -0.161166933654E+03   -0.21735E-08    0.00000E+00   252   0.420E-04    0.224E-05
RMM:   4    -0.161166933656E+03   -0.20896E-08    0.00000E+00   210   0.387E-04
  17 F= -.16116693E+03 E0= -.16115781E+03  d E =-.273050E-03
       N       E                     dE             d eps       ncg     rms          rms(c)
DAV:   1    -0.161166933657E+03   -0.32848E-08   -0.39936E-09 15692   0.368E-04    0.347E-05
RMM:   2    -0.161166933663E+03   -0.57477E-08    0.00000E+00   287   0.196E-04    0.156E-06
RMM:   3    -0.161166933662E+03    0.48493E-09    0.00000E+00   203   0.202E-04    0.430E-07
RMM:   4    -0.161166933662E+03    0.54740E-10    0.00000E+00   187   0.204E-04
  18 F= -.16116693E+03 E0= -.16115781E+03  d E =-.273056E-03
       N       E                     dE             d eps       ncg     rms          rms(c)
DAV:   1    -0.161166933663E+03   -0.70270E-09   -0.15247E-09 15530   0.204E-04    0.425E-05
RMM:   2    -0.161166933657E+03    0.62878E-08    0.00000E+00   294   0.236E-04    0.172E-06
RMM:   3    -0.161166933657E+03   -0.26995E-09    0.00000E+00   193   0.242E-04    0.357E-07
RMM:   4    -0.161166933657E+03   -0.28825E-09    0.00000E+00   177   0.244E-04
  19 F= -.16116693E+03 E0= -.16115781E+03  d E =-.273051E-03
       N       E                     dE             d eps       ncg     rms          rms(c)
DAV:   1    -0.161166577900E+03    0.35576E-03   -0.17699E-02 29560   0.421E-01    0.233E-02
RMM:   2    -0.161166657763E+03   -0.79863E-04   -0.97166E-04 29512   0.140E-01    0.940E-03
RMM:   3    -0.161166662451E+03   -0.46883E-05   -0.70129E-05 30009   0.371E-02    0.527E-03
RMM:   4    -0.161166663995E+03   -0.15441E-05   -0.51343E-05 29510   0.291E-02    0.787E-03
RMM:   5    -0.161166668347E+03   -0.43515E-05   -0.10830E-04 29512   0.424E-02    0.114E-02
RMM:   6    -0.161166661401E+03    0.69458E-05   -0.59103E-05 29512   0.341E-02    0.365E-03
RMM:   7    -0.161166661354E+03    0.47000E-07   -0.94502E-06 25818   0.154E-02
  20 F= -.16116666E+03 E0= -.16115755E+03  d E =-.748073E-06
