AlO                                     
           1
     4.786699    0.000000    0.000000
     0.000000    8.237173   -0.041393
     0.000000   -0.042826    8.565251
   Ti   Si
   8  16
Direct configuration=     1
   0.00000000  0.00000000  0.00000000
   0.75000000  0.75000000  0.25000000
   0.00000000  0.50000000  0.50000000
   0.75000000  0.25000000  0.75000000
   0.50000000  0.00000000  0.50000000
   0.25000000  0.75000000  0.75000000
   0.50000000  0.50000000  0.00000000
   0.25000000  0.25000000  0.25000000
   0.00000000  0.33673444  0.00000000
   0.00000000  0.66326559  0.00000000
   0.75000000  0.08673443  0.25000000
   0.75000000  0.41326556  0.25000000
   0.00000000  0.83673441  0.50000000
   0.00000000  0.16326557  0.50000000
   0.75000000  0.58673441  0.75000000
   0.75000000  0.91326559  0.75000000
   0.50000000  0.33673444  0.50000000
   0.50000000  0.66326559  0.50000000
   0.25000000  0.08673443  0.75000000
   0.25000000  0.41326556  0.75000000
   0.50000000  0.83673441  0.00000000
   0.50000000  0.16326557  0.00000000
   0.25000000  0.58673441  0.25000000
   0.25000000  0.91326559  0.25000000
Direct configuration=     2
   0.00041087  0.00000000  0.00000000
   0.74958913  0.75000000  0.25000000
   0.00041087  0.50000000  0.50000000
   0.74958913  0.25000000  0.75000000
   0.50041087  0.00000000  0.50000000
   0.24958913  0.75000000  0.75000000
   0.50041087  0.50000000  0.00000000
   0.24958913  0.25000000  0.25000000
   0.00014904  0.33674916  0.00010670
   0.00014904  0.66325087 -0.00010670
   0.74985096  0.08674914  0.25010670
   0.74985096  0.41325084  0.24989330
   0.00014904  0.83674913  0.50010670
   0.00014904  0.16325086  0.49989330
   0.74985096  0.58674913  0.75010670
   0.74985096  0.91325087  0.74989330
   0.50014904  0.33674916  0.50010670
   0.50014904  0.66325087  0.49989330
   0.24985096  0.08674914  0.75010670
   0.24985096  0.41325084  0.74989330
   0.50014904  0.83674913  0.00010670
   0.50014904  0.16325086 -0.00010670
   0.24985096  0.58674913  0.25010670
   0.24985096  0.91325087  0.24989330
Direct configuration=     3
   0.00083967  0.00000000  0.00000000
   0.74916033  0.75000000  0.25000000
   0.00083967  0.50000000  0.50000000
   0.74916033  0.25000000  0.75000000
   0.50083967  0.00000000  0.50000000
   0.24916033  0.75000000  0.75000000
   0.50083967  0.50000000  0.00000000
   0.24916033  0.25000000  0.25000000
   0.00030459  0.33676451  0.00021805
   0.00030459  0.66323552 -0.00021805
   0.74969541  0.08676450  0.25021805
   0.74969541  0.41323549  0.24978195
   0.00030459  0.83676448  0.50021805
   0.00030459  0.16323550  0.49978195
   0.74969541  0.58676448  0.75021805
   0.74969541  0.91323552  0.74978195
   0.50030459  0.33676451  0.50021805
   0.50030459  0.66323552  0.49978195
   0.24969541  0.08676450  0.75021805
   0.24969541  0.41323549  0.74978195
   0.50030459  0.83676448  0.00021805
   0.50030459  0.16323550 -0.00021805
   0.24969541  0.58676448  0.25021805
   0.24969541  0.91323552  0.24978195
Direct configuration=     4
   0.00082991  0.00000000  0.00000000
   0.74917009  0.75000000  0.25000000
   0.00082991  0.50000000  0.50000000
   0.74917009  0.25000000  0.75000000
   0.50082991  0.00000000  0.50000000
   0.24917009  0.75000000  0.75000000
   0.50082991  0.50000000  0.00000000
   0.24917009  0.25000000  0.25000000
   0.00042918  0.33677682  0.00020542
   0.00042918  0.66322321 -0.00020542
   0.74957082  0.08677680  0.25020542
   0.74957082  0.41322318  0.24979458
   0.00042918  0.83677679  0.50020542
   0.00042918  0.16322320  0.49979458
   0.74957082  0.58677679  0.75020542
   0.74957082  0.91322321  0.74979458
   0.50042918  0.33677682  0.50020542
   0.50042918  0.66322321  0.49979458
   0.24957082  0.08677680  0.75020542
   0.24957082  0.41322318  0.74979458
   0.50042918  0.83677679  0.00020542
   0.50042918  0.16322320 -0.00020542
   0.24957082  0.58677679  0.25020542
   0.24957082  0.91322321  0.24979458
Direct configuration=     5
   0.00080674  0.00000000  0.00000000
   0.74919326  0.75000000  0.25000000
   0.00080674  0.50000000  0.50000000
   0.74919326  0.25000000  0.75000000
   0.50080674  0.00000000  0.50000000
   0.24919326  0.75000000  0.75000000
   0.50080674  0.50000000  0.00000000
   0.24919326  0.25000000  0.25000000
   0.00072498  0.33680603  0.00017541
   0.00072498  0.66319400 -0.00017541
   0.74927502  0.08680602  0.25017541
   0.74927502  0.41319397  0.24982459
   0.00072498  0.83680600  0.50017541
   0.00072498  0.16319398  0.49982459
   0.74927502  0.58680600  0.75017541
   0.74927502  0.91319400  0.74982459
   0.50072498  0.33680603  0.50017541
   0.50072498  0.66319400  0.49982459
   0.24927502  0.08680602  0.75017541
   0.24927502  0.41319397  0.74982459
   0.50072498  0.83680600  0.00017541
   0.50072498  0.16319398 -0.00017541
   0.24927502  0.58680600  0.25017541
   0.24927502  0.91319400  0.24982459
Direct configuration=     6
   0.00080682  0.00000000  0.00000000
   0.74919318  0.75000000  0.25000000
   0.00080682  0.50000000  0.50000000
   0.74919318  0.25000000  0.75000000
   0.50080682  0.00000000  0.50000000
   0.24919318  0.75000000  0.75000000
   0.50080682  0.50000000  0.00000000
   0.24919318  0.25000000  0.25000000
   0.00072392  0.33680593  0.00017552
   0.00072392  0.66319410 -0.00017552
   0.74927608  0.08680591  0.25017552
   0.74927608  0.41319407  0.24982448
   0.00072392  0.83680590  0.50017552
   0.00072392  0.16319409  0.49982448
   0.74927608  0.58680590  0.75017552
   0.74927608  0.91319410  0.74982448
   0.50072392  0.33680593  0.50017552
   0.50072392  0.66319410  0.49982448
   0.24927608  0.08680591  0.75017552
   0.24927608  0.41319407  0.74982448
   0.50072392  0.83680590  0.00017552
   0.50072392  0.16319409 -0.00017552
   0.24927608  0.58680590  0.25017552
   0.24927608  0.91319410  0.24982448
Direct configuration=     7
   0.00080676  0.00000000  0.00000000
   0.74919324  0.75000000  0.25000000
   0.00080676  0.50000000  0.50000000
   0.74919324  0.25000000  0.75000000
   0.50080676  0.00000000  0.50000000
   0.24919324  0.75000000  0.75000000
   0.50080676  0.50000000  0.00000000
   0.24919324  0.25000000  0.25000000
   0.00072474  0.33680601  0.00017544
   0.00072474  0.66319402 -0.00017544
   0.74927526  0.08680599  0.25017544
   0.74927526  0.41319399  0.24982456
   0.00072474  0.83680598  0.50017544
   0.00072474  0.16319401  0.49982456
   0.74927526  0.58680598  0.75017544
   0.74927526  0.91319402  0.74982456
   0.50072474  0.33680601  0.50017544
   0.50072474  0.66319402  0.49982456
   0.24927526  0.08680599  0.75017544
   0.24927526  0.41319399  0.74982456
   0.50072474  0.83680598  0.00017544
   0.50072474  0.16319401 -0.00017544
   0.24927526  0.58680598  0.25017544
   0.24927526  0.91319402  0.24982456
Direct configuration=     8
   0.00080675  0.00000000  0.00000000
   0.74919325  0.75000000  0.25000000
   0.00080675  0.50000000  0.50000000
   0.74919325  0.25000000  0.75000000
   0.50080675  0.00000000  0.50000000
   0.24919325  0.75000000  0.75000000
   0.50080675  0.50000000  0.00000000
   0.24919325  0.25000000  0.25000000
   0.00072491  0.33680602  0.00017542
   0.00072491  0.66319401 -0.00017542
   0.74927509  0.08680601  0.25017542
   0.74927509  0.41319398  0.24982458
   0.00072491  0.83680599  0.50017542
   0.00072491  0.16319399  0.49982458
   0.74927509  0.58680599  0.75017542
   0.74927509  0.91319401  0.74982458
   0.50072491  0.33680602  0.50017542
   0.50072491  0.66319401  0.49982458
   0.24927509  0.08680601  0.75017542
   0.24927509  0.41319398  0.74982458
   0.50072491  0.83680599  0.00017542
   0.50072491  0.16319399 -0.00017542
   0.24927509  0.58680599  0.25017542
   0.24927509  0.91319401  0.24982458
Direct configuration=     9
   0.00080674  0.00000000  0.00000000
   0.74919326  0.75000000  0.25000000
   0.00080674  0.50000000  0.50000000
   0.74919326  0.25000000  0.75000000
   0.50080674  0.00000000  0.50000000
   0.24919326  0.75000000  0.75000000
   0.50080674  0.50000000  0.00000000
   0.24919326  0.25000000  0.25000000
   0.00072494  0.33680603  0.00017542
   0.00072494  0.66319400 -0.00017542
   0.74927506  0.08680601  0.25017542
   0.74927506  0.41319397  0.24982458
   0.00072494  0.83680600  0.50017542
   0.00072494  0.16319399  0.49982458
   0.74927506  0.58680600  0.75017542
   0.74927506  0.91319400  0.74982458
   0.50072494  0.33680603  0.50017542
   0.50072494  0.66319400  0.49982458
   0.24927506  0.08680601  0.75017542
   0.24927506  0.41319397  0.74982458
   0.50072494  0.83680600  0.00017542
   0.50072494  0.16319399 -0.00017542
   0.24927506  0.58680600  0.25017542
   0.24927506  0.91319400  0.24982458
Direct configuration=    10
   0.00080674  0.00000000  0.00000000
   0.74919326  0.75000000  0.25000000
   0.00080674  0.50000000  0.50000000
   0.74919326  0.25000000  0.75000000
   0.50080674  0.00000000  0.50000000
   0.24919326  0.75000000  0.75000000
   0.50080674  0.50000000  0.00000000
   0.24919326  0.25000000  0.25000000
   0.00072496  0.33680603  0.00017541
   0.00072496  0.66319400 -0.00017541
   0.74927504  0.08680602  0.25017541
   0.74927504  0.41319397  0.24982459
   0.00072496  0.83680600  0.50017541
   0.00072496  0.16319398  0.49982459
   0.74927504  0.58680600  0.75017541
   0.74927504  0.91319400  0.74982459
   0.50072496  0.33680603  0.50017541
   0.50072496  0.66319400  0.49982459
   0.24927504  0.08680602  0.75017541
   0.24927504  0.41319397  0.74982459
   0.50072496  0.83680600  0.00017541
   0.50072496  0.16319398 -0.00017541
   0.24927504  0.58680600  0.25017541
   0.24927504  0.91319400  0.24982459
Direct configuration=    11
   0.00080674  0.00000000  0.00000000
   0.74919326  0.75000000  0.25000000
   0.00080674  0.50000000  0.50000000
   0.74919326  0.25000000  0.75000000
   0.50080674  0.00000000  0.50000000
   0.24919326  0.75000000  0.75000000
   0.50080674  0.50000000  0.00000000
   0.24919326  0.25000000  0.25000000
   0.00072497  0.33680603  0.00017541
   0.00072497  0.66319400 -0.00017541
   0.74927503  0.08680602  0.25017541
   0.74927503  0.41319397  0.24982459
   0.00072497  0.83680600  0.50017541
   0.00072497  0.16319398  0.49982459
   0.74927503  0.58680600  0.75017541
   0.74927503  0.91319400  0.74982459
   0.50072497  0.33680603  0.50017541
   0.50072497  0.66319400  0.49982459
   0.24927503  0.08680602  0.75017541
   0.24927503  0.41319397  0.74982459
   0.50072497  0.83680600  0.00017541
   0.50072497  0.16319398 -0.00017541
   0.24927503  0.58680600  0.25017541
   0.24927503  0.91319400  0.24982459
Direct configuration=    12
   0.00080674  0.00000000  0.00000000
   0.74919326  0.75000000  0.25000000
   0.00080674  0.50000000  0.50000000
   0.74919326  0.25000000  0.75000000
   0.50080674  0.00000000  0.50000000
   0.24919326  0.75000000  0.75000000
   0.50080674  0.50000000  0.00000000
   0.24919326  0.25000000  0.25000000
   0.00072498  0.33680603  0.00017541
   0.00072498  0.66319400 -0.00017541
   0.74927502  0.08680602  0.25017541
   0.74927502  0.41319397  0.24982459
   0.00072498  0.83680600  0.50017541
   0.00072498  0.16319398  0.49982459
   0.74927502  0.58680600  0.75017541
   0.74927502  0.91319400  0.74982459
   0.50072498  0.33680603  0.50017541
   0.50072498  0.66319400  0.49982459
   0.24927502  0.08680602  0.75017541
   0.24927502  0.41319397  0.74982459
   0.50072498  0.83680600  0.00017541
   0.50072498  0.16319398 -0.00017541
   0.24927502  0.58680600  0.25017541
   0.24927502  0.91319400  0.24982459
Direct configuration=    13
   0.00080674  0.00000000  0.00000000
   0.74919326  0.75000000  0.25000000
   0.00080674  0.50000000  0.50000000
   0.74919326  0.25000000  0.75000000
   0.50080674  0.00000000  0.50000000
   0.24919326  0.75000000  0.75000000
   0.50080674  0.50000000  0.00000000
   0.24919326  0.25000000  0.25000000
   0.00072498  0.33680603  0.00017541
   0.00072498  0.66319400 -0.00017541
   0.74927502  0.08680602  0.25017541
   0.74927502  0.41319397  0.24982459
   0.00072498  0.83680600  0.50017541
   0.00072498  0.16319398  0.49982459
   0.74927502  0.58680600  0.75017541
   0.74927502  0.91319400  0.74982459
   0.50072498  0.33680603  0.50017541
   0.50072498  0.66319400  0.49982459
   0.24927502  0.08680602  0.75017541
   0.24927502  0.41319397  0.74982459
   0.50072498  0.83680600  0.00017541
   0.50072498  0.16319398 -0.00017541
   0.24927502  0.58680600  0.25017541
   0.24927502  0.91319400  0.24982459
Direct configuration=    14
   0.00080674  0.00000000  0.00000000
   0.74919326  0.75000000  0.25000000
   0.00080674  0.50000000  0.50000000
   0.74919326  0.25000000  0.75000000
   0.50080674  0.00000000  0.50000000
   0.24919326  0.75000000  0.75000000
   0.50080674  0.50000000  0.00000000
   0.24919326  0.25000000  0.25000000
   0.00072498  0.33680603  0.00017541
   0.00072498  0.66319400 -0.00017541
   0.74927502  0.08680602  0.25017541
   0.74927502  0.41319397  0.24982459
   0.00072498  0.83680600  0.50017541
   0.00072498  0.16319398  0.49982459
   0.74927502  0.58680600  0.75017541
   0.74927502  0.91319400  0.74982459
   0.50072498  0.33680603  0.50017541
   0.50072498  0.66319400  0.49982459
   0.24927502  0.08680602  0.75017541
   0.24927502  0.41319397  0.74982459
   0.50072498  0.83680600  0.00017541
   0.50072498  0.16319398 -0.00017541
   0.24927502  0.58680600  0.25017541
   0.24927502  0.91319400  0.24982459
Direct configuration=    15
   0.00080674  0.00000000  0.00000000
   0.74919326  0.75000000  0.25000000
   0.00080674  0.50000000  0.50000000
   0.74919326  0.25000000  0.75000000
   0.50080674  0.00000000  0.50000000
   0.24919326  0.75000000  0.75000000
   0.50080674  0.50000000  0.00000000
   0.24919326  0.25000000  0.25000000
   0.00072498  0.33680603  0.00017541
   0.00072498  0.66319400 -0.00017541
   0.74927502  0.08680602  0.25017541
   0.74927502  0.41319397  0.24982459
   0.00072498  0.83680600  0.50017541
   0.00072498  0.16319398  0.49982459
   0.74927502  0.58680600  0.75017541
   0.74927502  0.91319400  0.74982459
   0.50072498  0.33680603  0.50017541
   0.50072498  0.66319400  0.49982459
   0.24927502  0.08680602  0.75017541
   0.24927502  0.41319397  0.74982459
   0.50072498  0.83680600  0.00017541
   0.50072498  0.16319398 -0.00017541
   0.24927502  0.58680600  0.25017541
   0.24927502  0.91319400  0.24982459
Direct configuration=    16
   0.00080674  0.00000000  0.00000000
   0.74919326  0.75000000  0.25000000
   0.00080674  0.50000000  0.50000000
   0.74919326  0.25000000  0.75000000
   0.50080674  0.00000000  0.50000000
   0.24919326  0.75000000  0.75000000
   0.50080674  0.50000000  0.00000000
   0.24919326  0.25000000  0.25000000
   0.00072498  0.33680603  0.00017541
   0.00072498  0.66319400 -0.00017541
   0.74927502  0.08680602  0.25017541
   0.74927502  0.41319397  0.24982459
   0.00072498  0.83680600  0.50017541
   0.00072498  0.16319398  0.49982459
   0.74927502  0.58680600  0.75017541
   0.74927502  0.91319400  0.74982459
   0.50072498  0.33680603  0.50017541
   0.50072498  0.66319400  0.49982459
   0.24927502  0.08680602  0.75017541
   0.24927502  0.41319397  0.74982459
   0.50072498  0.83680600  0.00017541
   0.50072498  0.16319398 -0.00017541
   0.24927502  0.58680600  0.25017541
   0.24927502  0.91319400  0.24982459
Direct configuration=    17
   0.00080674  0.00000000  0.00000000
   0.74919326  0.75000000  0.25000000
   0.00080674  0.50000000  0.50000000
   0.74919326  0.25000000  0.75000000
   0.50080674  0.00000000  0.50000000
   0.24919326  0.75000000  0.75000000
   0.50080674  0.50000000  0.00000000
   0.24919326  0.25000000  0.25000000
   0.00072498  0.33680603  0.00017541
   0.00072498  0.66319400 -0.00017541
   0.74927502  0.08680602  0.25017541
   0.74927502  0.41319397  0.24982459
   0.00072498  0.83680600  0.50017541
   0.00072498  0.16319398  0.49982459
   0.74927502  0.58680600  0.75017541
   0.74927502  0.91319400  0.74982459
   0.50072498  0.33680603  0.50017541
   0.50072498  0.66319400  0.49982459
   0.24927502  0.08680602  0.75017541
   0.24927502  0.41319397  0.74982459
   0.50072498  0.83680600  0.00017541
   0.50072498  0.16319398 -0.00017541
   0.24927502  0.58680600  0.25017541
   0.24927502  0.91319400  0.24982459
Direct configuration=    18
   0.00080674  0.00000000  0.00000000
   0.74919326  0.75000000  0.25000000
   0.00080674  0.50000000  0.50000000
   0.74919326  0.25000000  0.75000000
   0.50080674  0.00000000  0.50000000
   0.24919326  0.75000000  0.75000000
   0.50080674  0.50000000  0.00000000
   0.24919326  0.25000000  0.25000000
   0.00072498  0.33680603  0.00017541
   0.00072498  0.66319400 -0.00017541
   0.74927502  0.08680602  0.25017541
   0.74927502  0.41319397  0.24982459
   0.00072498  0.83680600  0.50017541
   0.00072498  0.16319398  0.49982459
   0.74927502  0.58680600  0.75017541
   0.74927502  0.91319400  0.74982459
   0.50072498  0.33680603  0.50017541
   0.50072498  0.66319400  0.49982459
   0.24927502  0.08680602  0.75017541
   0.24927502  0.41319397  0.74982459
   0.50072498  0.83680600  0.00017541
   0.50072498  0.16319398 -0.00017541
   0.24927502  0.58680600  0.25017541
   0.24927502  0.91319400  0.24982459
Direct configuration=    19
   0.00080674  0.00000000  0.00000000
   0.74919326  0.75000000  0.25000000
   0.00080674  0.50000000  0.50000000
   0.74919326  0.25000000  0.75000000
   0.50080674  0.00000000  0.50000000
   0.24919326  0.75000000  0.75000000
   0.50080674  0.50000000  0.00000000
   0.24919326  0.25000000  0.25000000
   0.00072498  0.33680603  0.00017541
   0.00072498  0.66319400 -0.00017541
   0.74927502  0.08680602  0.25017541
   0.74927502  0.41319397  0.24982459
   0.00072498  0.83680600  0.50017541
   0.00072498  0.16319398  0.49982459
   0.74927502  0.58680600  0.75017541
   0.74927502  0.91319400  0.74982459
   0.50072498  0.33680603  0.50017541
   0.50072498  0.66319400  0.49982459
   0.24927502  0.08680602  0.75017541
   0.24927502  0.41319397  0.74982459
   0.50072498  0.83680600  0.00017541
   0.50072498  0.16319398 -0.00017541
   0.24927502  0.58680600  0.25017541
   0.24927502  0.91319400  0.24982459
