       N       E                     dE             d eps       ncg     rms          rms(c)
DAV:   1     0.929073932993E+03    0.92907E+03   -0.54026E+04 30576   0.175E+03
DAV:   2     0.575508523241E+00   -0.92850E+03   -0.89817E+03 30576   0.400E+02
DAV:   3    -0.923848029217E+02   -0.92960E+02   -0.88359E+02 32032   0.148E+02
DAV:   4    -0.958578280533E+02   -0.34730E+01   -0.34147E+01 35880   0.281E+01
DAV:   5    -0.959472676251E+02   -0.89440E-01   -0.89244E-01 36888   0.389E+00    0.342E+01
RMM:   6    -0.103763876298E+03   -0.78166E+01   -0.42930E+02 30633   0.123E+02    0.253E+01
RMM:   7    -0.790284786751E+02    0.24735E+02   -0.92365E+01 30576   0.618E+01    0.282E+00
RMM:   8    -0.790824061052E+02   -0.53927E-01   -0.93132E+00 30576   0.158E+01    0.460E+00
RMM:   9    -0.786553478025E+02    0.42706E+00   -0.98171E-01 30576   0.628E+00    0.540E-01
RMM:  10    -0.786496638481E+02    0.56840E-02   -0.32868E-02 30581   0.748E-01    0.294E-01
RMM:  11    -0.786476067764E+02    0.20571E-02   -0.14811E-02 30576   0.523E-01    0.690E-02
RMM:  12    -0.786475965739E+02    0.10202E-04   -0.42278E-04 30581   0.763E-02    0.463E-02
RMM:  13    -0.786475761700E+02    0.20404E-04   -0.14160E-04 30570   0.647E-02    0.191E-02
RMM:  14    -0.786475676107E+02    0.85593E-05   -0.22416E-05 17795   0.291E-02
   1 F= -.78647568E+02 E0= -.78642233E+02  d E =-.786476E+02
       N       E                     dE             d eps       ncg     rms          rms(c)
DAV:   1    -0.786476100607E+02   -0.33891E-04   -0.44848E-03 33092   0.247E-01    0.828E-03
RMM:   2    -0.786476091109E+02    0.94985E-06   -0.17071E-05 16603   0.254E-02    0.397E-03
RMM:   3    -0.786476087147E+02    0.39611E-06   -0.43294E-06 16085   0.131E-02    0.326E-03
RMM:   4    -0.786476085893E+02    0.12543E-06   -0.17133E-06 15967   0.862E-03
   2 F= -.78647609E+02 E0= -.78642273E+02  d E =-.409786E-04
       N       E                     dE             d eps       ncg     rms          rms(c)
DAV:   1    -0.786476836114E+02   -0.74897E-04   -0.40104E-02 31748   0.732E-01    0.178E-02
RMM:   2    -0.786476817822E+02    0.18292E-05   -0.10758E-04 30188   0.678E-02    0.411E-03
RMM:   3    -0.786476820028E+02   -0.22060E-06   -0.46652E-06 16024   0.120E-02    0.128E-03
RMM:   4    -0.786476818578E+02    0.14502E-06   -0.12366E-06 15731   0.690E-03
   3 F= -.78647682E+02 E0= -.78642342E+02  d E =-.114247E-03
       N       E                     dE             d eps       ncg     rms          rms(c)
DAV:   1    -0.786476923935E+02   -0.10391E-04   -0.99229E-03 31576   0.364E-01    0.895E-03
RMM:   2    -0.786476916023E+02    0.79125E-06   -0.25385E-05 17452   0.340E-02    0.112E-03
RMM:   3    -0.786476918616E+02   -0.25931E-06   -0.27896E-06 15660   0.905E-03    0.326E-04
RMM:   4    -0.786476919266E+02   -0.64970E-07   -0.53862E-07 14935   0.445E-03
   4 F= -.78647692E+02 E0= -.78642351E+02  d E =-.124316E-03
       N       E                     dE             d eps       ncg     rms          rms(c)
DAV:   1    -0.786477098537E+02   -0.17992E-04   -0.38572E-03 31464   0.228E-01    0.555E-03
RMM:   2    -0.786477110592E+02   -0.12054E-05   -0.11810E-05 15874   0.237E-02    0.564E-03
RMM:   3    -0.786477091189E+02    0.19402E-05   -0.47905E-06 15511   0.124E-02    0.206E-03
RMM:   4    -0.786477095530E+02   -0.43402E-06   -0.96427E-07 15455   0.540E-03
   5 F= -.78647710E+02 E0= -.78642367E+02  d E =-.176264E-04
       N       E                     dE             d eps       ncg     rms          rms(c)
DAV:   1    -0.786477255609E+02   -0.16442E-04   -0.16589E-02 30892   0.473E-01    0.115E-02
RMM:   2    -0.786477245786E+02    0.98223E-06   -0.45549E-05 23513   0.442E-02    0.259E-03
RMM:   3    -0.786477245420E+02    0.36643E-07   -0.33576E-06 15784   0.971E-03    0.147E-03
RMM:   4    -0.786477244219E+02    0.12013E-06   -0.89322E-07 15598   0.590E-03
   6 F= -.78647724E+02 E0= -.78642379E+02  d E =-.324953E-04
       N       E                     dE             d eps       ncg     rms          rms(c)
DAV:   1    -0.786477328894E+02   -0.83474E-05   -0.43606E-03 31320   0.245E-01    0.592E-03
RMM:   2    -0.786477344783E+02   -0.15890E-05   -0.14240E-05 16003   0.239E-02    0.784E-03
RMM:   3    -0.786477328621E+02    0.16162E-05   -0.56495E-06 15494   0.147E-02    0.367E-03
RMM:   4    -0.786477325914E+02    0.27074E-06   -0.23085E-06 15414   0.913E-03
   7 F= -.78647733E+02 E0= -.78642385E+02  d E =-.816951E-05
       N       E                     dE             d eps       ncg     rms          rms(c)
DAV:   1    -0.786477355058E+02   -0.26437E-05   -0.42105E-03 30880   0.241E-01    0.570E-03
RMM:   2    -0.786477352962E+02    0.20953E-06   -0.99522E-06 15774   0.212E-02    0.253E-03
RMM:   3    -0.786477354148E+02   -0.11861E-06   -0.16438E-06 15433   0.793E-03    0.956E-04
RMM:   4    -0.786477353118E+02    0.10300E-06   -0.16520E-07  7358   0.282E-03
   8 F= -.78647735E+02 E0= -.78642385E+02  d E =-.108900E-04
       N       E                     dE             d eps       ncg     rms          rms(c)
DAV:   1    -0.786477367098E+02   -0.12950E-05   -0.81810E-04 31608   0.104E-01    0.268E-03
RMM:   2    -0.786477369819E+02   -0.27211E-06   -0.20638E-06 15430   0.937E-03    0.354E-03
RMM:   3    -0.786477363838E+02    0.59814E-06   -0.10232E-06 14959   0.674E-03    0.885E-04
RMM:   4    -0.786477366002E+02   -0.21636E-06   -0.64617E-08  6609   0.268E-03
   9 F= -.78647737E+02 E0= -.78642386E+02  d E =-.128831E-05
