AlCu                                    
           1
    12.119688    0.000000   -0.112630
     0.000000    4.104732    0.000000
    -4.030560    0.000000    5.724595
   Al   Cu
  10  10
Direct configuration=     1
   0.50000000  0.00000000  0.50000000
   0.15596498  0.00000000  0.46241373
   0.84403500  0.00000000  0.53758624
   0.87930506  0.50000000  0.99864471
   0.12069493  0.50000000  0.00135527
   0.00000000  0.50000000  0.50000000
   0.65596500  0.50000000  0.46241373
   0.34403503  0.50000000  0.53758624
   0.37930506  0.00000000  0.99864471
   0.62069494  0.00000000  0.00135527
   0.00000000  0.00000000  0.00000000
   0.25692428  0.00000000  0.24237154
   0.74307569  0.00000000  0.75762844
   0.10950506  0.00000000  0.77228959
   0.89049496  0.00000000  0.22771038
   0.50000000  0.50000000  0.00000000
   0.75692431  0.50000000  0.24237154
   0.24307572  0.50000000  0.75762844
   0.60950504  0.50000000  0.77228959
   0.39049496  0.50000000  0.22771038
Direct configuration=     2
   0.50000000  0.00000000  0.50000000
   0.15596722  0.00000000  0.46237147
   0.84403277 -0.00000000  0.53762850
   0.87931534  0.50000000  0.99867583
   0.12068465  0.50000000  0.00132415
  -0.00000000  0.50000000  0.50000000
   0.65596723  0.50000000  0.46237147
   0.34403280  0.50000000  0.53762850
   0.37931534  0.00000000  0.99867583
   0.62068466  0.00000000  0.00132415
  -0.00000000  0.00000000 -0.00000000
   0.25693708  0.00000000  0.24236657
   0.74306289 -0.00000000  0.75763342
   0.10954218  0.00000000  0.77235744
   0.89045784 -0.00000000  0.22764253
   0.50000000  0.50000000 -0.00000000
   0.75693711  0.50000000  0.24236657
   0.24306292  0.50000000  0.75763342
   0.60954216  0.50000000  0.77235744
   0.39045784  0.50000000  0.22764253
Direct configuration=     3
   0.50000000  0.00000000  0.50000000
   0.15597391  0.00000000  0.46224469
   0.84402607 -0.00000000  0.53775528
   0.87934616  0.50000000  0.99876918
   0.12065383  0.50000000  0.00123079
  -0.00000000  0.50000000  0.50000000
   0.65597393  0.50000000  0.46224469
   0.34402610  0.50000000  0.53775528
   0.37934616  0.00000000  0.99876918
   0.62065384  0.00000000  0.00123079
  -0.00000000  0.00000000 -0.00000000
   0.25697550  0.00000000  0.24235164
   0.74302447 -0.00000000  0.75764835
   0.10965353  0.00000000  0.77256096
   0.89034648 -0.00000000  0.22743901
   0.50000000  0.50000000 -0.00000000
   0.75697553  0.50000000  0.24235164
   0.24302450  0.50000000  0.75764835
   0.60965352  0.50000000  0.77256096
   0.39034648  0.50000000  0.22743901
Direct configuration=     4
   0.50000000  0.00000000  0.50000000
   0.15597724  0.00000000  0.46218164
   0.84402275 -0.00000000  0.53781833
   0.87936149  0.50000000  0.99881561
   0.12063850  0.50000000  0.00118437
  -0.00000000  0.50000000  0.50000000
   0.65597725  0.50000000  0.46218164
   0.34402278  0.50000000  0.53781833
   0.37936149  0.00000000  0.99881561
   0.62063851  0.00000000  0.00118437
  -0.00000000  0.00000000 -0.00000000
   0.25699461  0.00000000  0.24234421
   0.74300536 -0.00000000  0.75765577
   0.10970891  0.00000000  0.77266217
   0.89029111 -0.00000000  0.22733780
   0.50000000  0.50000000 -0.00000000
   0.75699464  0.50000000  0.24234421
   0.24300539  0.50000000  0.75765577
   0.60970889  0.50000000  0.77266217
   0.39029111  0.50000000  0.22733780
Direct configuration=     5
   0.50000000  0.00000000  0.50000000
   0.15594489  0.00000000  0.46216251
   0.84405510 -0.00000000  0.53783747
   0.87938485  0.50000000  0.99884595
   0.12061514  0.50000000  0.00115403
  -0.00000000  0.50000000  0.50000000
   0.65594490  0.50000000  0.46216251
   0.34405513  0.50000000  0.53783747
   0.37938485  0.00000000  0.99884595
   0.62061515 -0.00000000  0.00115403
  -0.00000000  0.00000000 -0.00000000
   0.25700487  0.00000000  0.24233805
   0.74299510 -0.00000000  0.75766193
   0.10974890  0.00000000  0.77269225
   0.89025112 -0.00000000  0.22730772
   0.50000000  0.50000000 -0.00000000
   0.75700490  0.50000000  0.24233805
   0.24299513  0.50000000  0.75766193
   0.60974888  0.50000000  0.77269225
   0.39025112  0.50000000  0.22730772
Direct configuration=     6
   0.50000000 -0.00000000  0.50000000
   0.15587776  0.00000000  0.46212279
   0.84412223 -0.00000000  0.53787718
   0.87943332  0.50000000  0.99890890
   0.12056668  0.50000000  0.00109108
  -0.00000000  0.50000000  0.50000000
   0.65587777  0.50000000  0.46212279
   0.34412226  0.50000000  0.53787718
   0.37943332 -0.00000000  0.99890890
   0.62056668 -0.00000000  0.00109108
  -0.00000000 -0.00000000 -0.00000000
   0.25702616 -0.00000000  0.24232527
   0.74297381 -0.00000000  0.75767471
   0.10983187  0.00000000  0.77275466
   0.89016815 -0.00000000  0.22724531
   0.50000000  0.50000000 -0.00000000
   0.75702619  0.50000000  0.24232527
   0.24297384  0.50000000  0.75767471
   0.60983185  0.50000000  0.77275466
   0.39016815  0.50000000  0.22724531
Direct configuration=     7
   0.50000000 -0.00000000  0.50000000
   0.15585387  0.00000000  0.46208420
   0.84414611 -0.00000000  0.53791577
   0.87945744  0.50000000  0.99892631
   0.12054255  0.50000000  0.00107367
  -0.00000000  0.50000000  0.50000000
   0.65585389  0.50000000  0.46208420
   0.34414614  0.50000000  0.53791577
   0.37945744 -0.00000000  0.99892631
   0.62054256 -0.00000000  0.00107367
  -0.00000000 -0.00000000 -0.00000000
   0.25700244 -0.00000000  0.24233073
   0.74299753 -0.00000000  0.75766926
   0.10986607  0.00000000  0.77278967
   0.89013395 -0.00000000  0.22721030
   0.50000000  0.50000000 -0.00000000
   0.75700247  0.50000000  0.24233073
   0.24299756  0.50000000  0.75766926
   0.60986605  0.50000000  0.77278967
   0.39013395  0.50000000  0.22721030
Direct configuration=     8
   0.50000000 -0.00000000  0.50000000
   0.15583041  0.00000000  0.46204629
   0.84416958 -0.00000000  0.53795368
   0.87948113  0.50000000  0.99894341
   0.12051886  0.50000000  0.00105657
  -0.00000000  0.50000000  0.50000000
   0.65583042  0.50000000  0.46204629
   0.34416961  0.50000000  0.53795368
   0.37948113 -0.00000000  0.99894341
   0.62051887 -0.00000000  0.00105657
  -0.00000000 -0.00000000 -0.00000000
   0.25697914 -0.00000000  0.24233608
   0.74302083 -0.00000000  0.75766391
   0.10989966  0.00000000  0.77282407
   0.89010035 -0.00000000  0.22717590
   0.50000000  0.50000000 -0.00000000
   0.75697917  0.50000000  0.24233608
   0.24302086  0.50000000  0.75766391
   0.60989965  0.50000000  0.77282407
   0.39010035  0.50000000  0.22717590
Direct configuration=     9
   0.50000000 -0.00000000  0.50000000
   0.15582737  0.00000000  0.46204843
   0.84417261  0.00000000  0.53795154
   0.87947874  0.50000000  0.99893948
   0.12052125  0.50000000  0.00106050
  -0.00000000  0.50000000  0.50000000
   0.65582739  0.50000000  0.46204843
   0.34417264  0.50000000  0.53795154
   0.37947874 -0.00000000  0.99893948
   0.62052126 -0.00000000  0.00106050
  -0.00000000 -0.00000000 -0.00000000
   0.25698519 -0.00000000  0.24236800
   0.74301478  0.00000000  0.75763198
   0.10990527  0.00000000  0.77282728
   0.89009475 -0.00000000  0.22717269
   0.50000000  0.50000000 -0.00000000
   0.75698522  0.50000000  0.24236800
   0.24301481  0.50000000  0.75763198
   0.60990525  0.50000000  0.77282728
   0.39009475  0.50000000  0.22717269
