       N       E                     dE             d eps       ncg     rms          rms(c)
DAV:   1     0.281874509101E+02    0.28187E+02   -0.85058E+03  4056   0.801E+02
DAV:   2    -0.219323542181E+02   -0.50120E+02   -0.46186E+02  4896   0.898E+01
DAV:   3    -0.242855711005E+02   -0.23532E+01   -0.22572E+01  5230   0.171E+01
DAV:   4    -0.243472089346E+02   -0.61638E-01   -0.61368E-01  5410   0.324E+00
DAV:   5    -0.243489770868E+02   -0.17682E-02   -0.17679E-02  5382   0.550E-01    0.275E+00
RMM:   6    -0.243485282134E+02    0.44887E-03   -0.81488E-03  4056   0.614E-01    0.176E+00
RMM:   7    -0.243540389461E+02   -0.55107E-02   -0.29200E-02  4056   0.128E+00    0.116E-01
RMM:   8    -0.243538864214E+02    0.15252E-03   -0.24536E-04  4060   0.986E-02    0.388E-02
RMM:   9    -0.243538949336E+02   -0.85121E-05   -0.44783E-05  4100   0.418E-02    0.215E-03
RMM:  10    -0.243538985938E+02   -0.36602E-05   -0.72780E-06  3981   0.127E-02    0.883E-04
RMM:  11    -0.243538997335E+02   -0.11397E-05   -0.48738E-07  2476   0.401E-03    0.222E-04
RMM:  12    -0.243539002631E+02   -0.52966E-06   -0.20474E-07  1954   0.255E-03
   1 F= -.24353900E+02 E0= -.24345886E+02  d E =-.243539E+02
       N       E                     dE             d eps       ncg     rms          rms(c)
DAV:   1    -0.243539281559E+02   -0.28422E-04   -0.24105E-05  4828   0.280E-02    0.814E-04
RMM:   2    -0.243539281757E+02   -0.19845E-07   -0.27127E-07  2145   0.333E-03    0.557E-04
RMM:   3    -0.243539283279E+02   -0.15216E-06   -0.87832E-08  1900   0.193E-03    0.622E-05
RMM:   4    -0.243539283486E+02   -0.20747E-07   -0.22546E-08  1115   0.115E-03
   2 F= -.24353928E+02 E0= -.24345915E+02  d E =-.280855E-04
       N       E                     dE             d eps       ncg     rms          rms(c)
DAV:   1    -0.243540040735E+02   -0.75746E-04   -0.21683E-04  4414   0.835E-02    0.244E-03
RMM:   2    -0.243540048472E+02   -0.77370E-06   -0.30310E-06  3009   0.108E-02    0.607E-05
RMM:   3    -0.243540048187E+02    0.28504E-07   -0.54919E-07  2053   0.465E-03    0.506E-05
RMM:   4    -0.243540047609E+02    0.57776E-07   -0.24183E-07  1989   0.303E-03
   3 F= -.24354005E+02 E0= -.24345993E+02  d E =-.104498E-03
       N       E                     dE             d eps       ncg     rms          rms(c)
DAV:   1    -0.243541219999E+02   -0.11718E-03   -0.86827E-04  4144   0.167E-01    0.485E-03
RMM:   2    -0.243541246100E+02   -0.26102E-05   -0.13823E-05  4028   0.217E-02    0.402E-05
RMM:   3    -0.243541247237E+02   -0.11364E-06   -0.14239E-06  2495   0.717E-03    0.633E-05
RMM:   4    -0.243541247644E+02   -0.40737E-07   -0.62055E-07  2080   0.481E-03
   4 F= -.24354125E+02 E0= -.24346117E+02  d E =-.224501E-03
       N       E                     dE             d eps       ncg     rms          rms(c)
DAV:   1    -0.243542216845E+02   -0.96961E-04   -0.34726E-03  4074   0.334E-01    0.970E-03
RMM:   2    -0.243542320369E+02   -0.10352E-04   -0.54737E-05  4061   0.432E-02    0.888E-05
RMM:   3    -0.243542327963E+02   -0.75940E-06   -0.96650E-06  4256   0.142E-02    0.312E-04
RMM:   4    -0.243542328185E+02   -0.22220E-07   -0.36646E-07  1619   0.306E-03
   5 F= -.24354233E+02 E0= -.24346232E+02  d E =-.332555E-03
       N       E                     dE             d eps       ncg     rms          rms(c)
DAV:   1    -0.243542337868E+02   -0.99051E-06   -0.24634E-05  4432   0.274E-02    0.753E-04
RMM:   2    -0.243542338709E+02   -0.84056E-07   -0.38415E-07  2080   0.405E-03    0.397E-04
RMM:   3    -0.243542338827E+02   -0.11793E-07   -0.94436E-08  1867   0.194E-03    0.419E-04
RMM:   4    -0.243542338770E+02    0.56874E-08   -0.33314E-08  1392   0.127E-03
   6 F= -.24354234E+02 E0= -.24346233E+02  d E =-.333614E-03
       N       E                     dE             d eps       ncg     rms          rms(c)
DAV:   1    -0.243542392312E+02   -0.53486E-05   -0.94602E-05  4324   0.430E-02    0.212E-03
RMM:   2    -0.243542385338E+02    0.69739E-06   -0.67003E-06  3863   0.111E-02    0.389E-03
RMM:   3    -0.243542390394E+02   -0.50555E-06   -0.30299E-07  2057   0.334E-03    0.251E-03
RMM:   4    -0.243542388408E+02    0.19860E-06   -0.12578E-07  1936   0.204E-03
   7 F= -.24354239E+02 E0= -.24346239E+02  d E =-.496381E-05
       N       E                     dE             d eps       ncg     rms          rms(c)
DAV:   1    -0.243542389421E+02    0.97241E-07   -0.35543E-06  4232   0.809E-03    0.213E-03
RMM:   2    -0.243542388985E+02    0.43669E-07   -0.27507E-07  1994   0.239E-03    0.239E-03
RMM:   3    -0.243542390042E+02   -0.10570E-06   -0.35755E-08   992   0.133E-03    0.187E-03
RMM:   4    -0.243542391467E+02   -0.14258E-06   -0.10804E-08   520   0.107E-03
   8 F= -.24354239E+02 E0= -.24346240E+02  d E =-.526977E-05
