 vasp.5.3.5 31Mar14 (build Nov 12 2015 11:19:23) complex                         
 executed on           CrayXC_GCC date 2016.07.03  13:55:26
 running on   96 total cores
 distrk:  each k-point on   24 cores,    4 groups
 distr:  one band on NCORES_PER_BAND=  12 cores,    2 groups


--------------------------------------------------------------------------------------------------------


 INCAR:
 POTCAR:   PAW_GGA Mg 05Jan2001                   

 ----------------------------------------------------------------------------- 
|                                                                             |
|           W    W    AA    RRRRR   N    N  II  N    N   GGGG   !!!           |
|           W    W   A  A   R    R  NN   N  II  NN   N  G    G  !!!           |
|           W    W  A    A  R    R  N N  N  II  N N  N  G       !!!           |
|           W WW W  AAAAAA  RRRRR   N  N N  II  N  N N  G  GGG   !            |
|           WW  WW  A    A  R   R   N   NN  II  N   NN  G    G                |
|           W    W  A    A  R    R  N    N  II  N    N   GGGG   !!!           |
|                                                                             |
|      You have enabled k-point parallelism (KPAR>1).                         |
|      This developmental code was originally  written by Paul Kent at ORNL,  |
|      and carefully double checked in Vienna.                                |
|      GW as well as linear response parallelism added by Martijn Marsman     |
|      and Georg Kresse.                                                      |
|      Carefully verify results versus KPAR=1.                                |
|      Report problems to Paul Kent and Vienna.                               |
|                                                                             |
 ----------------------------------------------------------------------------- 

 POTCAR:   PAW_GGA Mg 05Jan2001                   
   VRHFIN =Mg: s2p0                                                             
   LEXCH  = 91                                                                  
   EATOM  =    23.0823 eV,    1.6965 Ry                                         
                                                                                
   TITEL  = PAW_GGA Mg 05Jan2001                                                
   LULTRA =        F    use ultrasoft PP ?                                      
   IUNSCR =        1    unscreen: 0-lin 1-nonlin 2-no                           
   RPACOR =    2.000    partial core radius                                     
   POMASS =   24.305; ZVAL   =    2.000    mass and valenz                      
   RCORE  =    2.000    outmost cutoff radius                                   
   RWIGS  =    2.880; RWIGS  =    1.524    wigner-seitz radius (au A)           
   ENMAX  =  210.083; ENMIN  =  157.562 eV                                      
   ICORE  =        2    local potential                                         
   LCOR   =        T    correct aug charges                                     
   LPAW   =        T    paw PP                                                  
   EAUG   =  274.554                                                            
   DEXC   =    -.096                                                            
   RMAX   =    3.181    core radius for proj-oper                               
   RAUG   =    1.300    factor for augmentation sphere                          
   RDEP   =    2.025    core radius for depl-charge                             
   QCUT   =   -3.929; QGAM   =    7.859    optimization parameters              
                                                                                
   Description                                                                  
     l     E      TYP  RCUT    TYP  RCUT                                        
     0   .000     23  2.000                                                     
     0  2.000     23  2.000                                                     
     1   .000     23  2.000                                                     
     1  2.000     23  2.000                                                     
     2   .000     23  2.000                                                     
  local pseudopotential read in
  partial core-charges read in
  atomic valenz-charges read in
  non local Contribution for L=           0  read in
    real space projection operators read in
  non local Contribution for L=           0  read in
    real space projection operators read in
  non local Contribution for L=           1  read in
    real space projection operators read in
  non local Contribution for L=           1  read in
    real space projection operators read in
    PAW grid and wavefunctions read in

   number of l-projection  operators is LMAX  =           4
   number of lm-projection operators is LMMAX =           8

 PAW_GGA Mg 05Jan2001                   :
 energy of atom  1       EATOM=  -23.0823
 kinetic energy error for atom=    0.0001 (will be added to EATOM!!)


 POSCAR: Mg                                      
  positions in direct lattice
  No initial velocities read in
 exchange correlation table for  LEXCH =        7
   RHO(1)=    0.500       N(1)  =     2000
   RHO(2)=  100.500       N(2)  =     4000



--------------------------------------------------------------------------------------------------------


 ion  position               nearest neighbor table
   1  0.167  0.333  0.125-  14 3.15  10 3.15  11 3.15  13 3.17   9 3.17   5 3.17   5 3.17  12 3.19
                             7 3.20   7 3.20   3 3.20   3 3.20
   2  0.167  0.333  0.625-  13 3.15   9 3.15  12 3.15  14 3.17  10 3.17   6 3.17   6 3.17  11 3.19
                             8 3.20   8 3.20   4 3.20   4 3.20
   3  0.167  0.833  0.125-  16 3.15  12 3.15   9 3.15  15 3.17  11 3.17   7 3.17   7 3.17  10 3.19
                             5 3.20   5 3.20   1 3.20   1 3.20
   4  0.167  0.833  0.625-  15 3.15  11 3.15  10 3.15  16 3.17  12 3.17   8 3.17   8 3.17   9 3.19
                             6 3.20   6 3.20   2 3.20   2 3.20
   5  0.667  0.333  0.125-  10 3.15  14 3.15  15 3.15   9 3.17  13 3.17   1 3.17   1 3.17  16 3.19
                             3 3.20   3 3.20   7 3.20   7 3.20
   6  0.667  0.333  0.625-   9 3.15  13 3.15  16 3.15  10 3.17  14 3.17   2 3.17   2 3.17  15 3.19
                             4 3.20   4 3.20   8 3.20   8 3.20
   7  0.667  0.833  0.125-  12 3.15  16 3.15  13 3.15  11 3.17  15 3.17   3 3.17   3 3.17  14 3.19
                             1 3.20   1 3.20   5 3.20   5 3.20
   8  0.667  0.833  0.625-  11 3.15  15 3.15  14 3.15  12 3.17  16 3.17   4 3.17   4 3.17  13 3.19
                             2 3.20   2 3.20   6 3.20   6 3.20
   9  0.333  0.167  0.375-   6 3.15   2 3.15   3 3.15   5 3.17   1 3.17  13 3.17  13 3.17   4 3.19
                            15 3.20  15 3.20  11 3.20  11 3.20
  10  0.333  0.167  0.875-   5 3.15   1 3.15   4 3.15   6 3.17   2 3.17  14 3.17  14 3.17   3 3.19
                            16 3.20  16 3.20  12 3.20  12 3.20
  11  0.333  0.667  0.375-   8 3.15   4 3.15   1 3.15   7 3.17   3 3.17  15 3.17  15 3.17   2 3.19
                            13 3.20  13 3.20   9 3.20   9 3.20
  12  0.333  0.667  0.875-   7 3.15   3 3.15   2 3.15   8 3.17   4 3.17  16 3.17  16 3.17   1 3.19
                            14 3.20  14 3.20  10 3.20  10 3.20
  13  0.833  0.167  0.375-   2 3.15   6 3.15   7 3.15   1 3.17   5 3.17   9 3.17   9 3.17   8 3.19
                            11 3.20  11 3.20  15 3.20  15 3.20
  14  0.833  0.167  0.875-   1 3.15   5 3.15   8 3.15   2 3.17   6 3.17  10 3.17  10 3.17   7 3.19
                            12 3.20  12 3.20  16 3.20  16 3.20
  15  0.833  0.667  0.375-   4 3.15   8 3.15   5 3.15   3 3.17   7 3.17  11 3.17  11 3.17   6 3.19
                             9 3.20   9 3.20  13 3.20  13 3.20
  16  0.833  0.667  0.875-   3 3.15   7 3.15   6 3.15   4 3.17   8 3.17  12 3.17  12 3.17   5 3.19
                            10 3.20  10 3.20  14 3.20  14 3.20

  LATTYP: Found a base centered monoclinic cell.
 ALAT       =    11.0973179870
 B/A-ratio  =     0.5715691464
 C/A-ratio  =     1.3574202770
 COS(beta)  =    -0.6336534476
  
  Lattice vectors:
  
 A1 = (  -3.1714458882,   5.5485896495,  -0.0277429482)
 A2 = (   3.1714386814,   5.5485896237,  -0.0277429481)
 A3 = (   0.0000072069, -11.0456894086, -10.2424870012)


Analysis of symmetry for initial positions (statically):
=====================================================================
 Subroutine PRICEL returns following result:
 
  LATTYP: Found a base centered monoclinic cell.
 ALAT       =     5.5486589935
 B/A-ratio  =     0.5715691293
 C/A-ratio  =     1.3574202770
 COS(beta)  =    -0.6336534507
  
  Lattice vectors:
  
 A1 = (  -1.5857229441,   2.7742948247,  -0.0138714741)
 A2 = (   1.5857192456,   2.7742948118,  -0.0138714741)
 A3 = (   0.0000036986,  -5.5228447043,  -5.1212435006)
 
   8 primitive cells build up your supercell.
 

 Routine SETGRP: Setting up the symmetry group for a 
 base centered monoclinic supercell.


 Subroutine GETGRP returns: Found  4 space group operations
 (whereof  4 operations were pure point group operations)
 out of a pool of  4 trial point group operations.


The static configuration has the point symmetry C_2h.


Analysis of symmetry for dynamics (positions and initial velocities):
=====================================================================
 Subroutine PRICEL returns following result:
 
  LATTYP: Found a base centered monoclinic cell.
 ALAT       =     5.5486589935
 B/A-ratio  =     0.5715691293
 C/A-ratio  =     1.3574202770
 COS(beta)  =    -0.6336534507
  
  Lattice vectors:
  
 A1 = (  -1.5857229441,   2.7742948247,  -0.0138714741)
 A2 = (   1.5857192456,   2.7742948118,  -0.0138714741)
 A3 = (   0.0000036986,  -5.5228447043,  -5.1212435006)
 
   8 primitive cells build up your supercell.
 

 Routine SETGRP: Setting up the symmetry group for a 
 base centered monoclinic supercell.


 Subroutine GETGRP returns: Found  4 space group operations
 (whereof  4 operations were pure point group operations)
 out of a pool of  4 trial point group operations.


The dynamic configuration has the point symmetry C_2h.


 KPOINTS: Automatic                               

Automatic generation of k-mesh.
Space group operators:
 irot       det(A)        alpha          n_x          n_y          n_z        tau_x        tau_y        tau_z
    1     1.000000     0.000000     1.000000     0.000000     0.000000     0.000000     0.000000    -0.000000
    2    -1.000000     0.000000     1.000000     0.000000     0.000000     0.000000     0.000000    -0.000000
    3     1.000000   180.000000     1.000000     0.000001     0.000000     0.000000     0.000000    -0.000000
    4    -1.000000   180.000000     1.000000     0.000001     0.000000     0.000000     0.000000    -0.000000
 
 Subroutine IBZKPT returns following result:
 ===========================================
 
 Found     78 irreducible k-points:
 
 Following reciprocal coordinates:
            Coordinates               Weight
  0.000000  0.000000  0.000000      1.000000
  0.125000  0.000000  0.000000      4.000000
  0.250000  0.000000  0.000000      4.000000
  0.375000  0.000000  0.000000      4.000000
  0.500000  0.000000  0.000000      2.000000
  0.000000  0.125000  0.000000      2.000000
  0.125000  0.125000  0.000000      4.000000
  0.250000  0.125000  0.000000      4.000000
  0.375000  0.125000  0.000000      4.000000
  0.500000  0.125000  0.000000      4.000000
 -0.375000  0.125000  0.000000      4.000000
 -0.250000  0.125000  0.000000      2.000000
  0.000000  0.250000  0.000000      2.000000
  0.125000  0.250000  0.000000      4.000000
  0.250000  0.250000  0.000000      4.000000
  0.375000  0.250000  0.000000      4.000000
  0.500000  0.250000  0.000000      2.000000
  0.000000  0.375000  0.000000      2.000000
  0.125000  0.375000  0.000000      4.000000
  0.250000  0.375000  0.000000      2.000000
  0.000000  0.500000  0.000000      1.000000
  0.000000  0.000000  0.250000      2.000000
  0.125000  0.000000  0.250000      4.000000
  0.250000  0.000000  0.250000      4.000000
  0.375000  0.000000  0.250000      4.000000
  0.500000  0.000000  0.250000      4.000000
 -0.375000  0.000000  0.250000      4.000000
 -0.250000  0.000000  0.250000      4.000000
 -0.125000  0.000000  0.250000      4.000000
  0.000000  0.125000  0.250000      2.000000
  0.125000  0.125000  0.250000      4.000000
  0.250000  0.125000  0.250000      4.000000
  0.375000  0.125000  0.250000      4.000000
  0.500000  0.125000  0.250000      4.000000
 -0.375000  0.125000  0.250000      4.000000
 -0.250000  0.125000  0.250000      4.000000
  0.000000  0.250000  0.250000      2.000000
  0.125000  0.250000  0.250000      4.000000
  0.250000  0.250000  0.250000      4.000000
  0.375000  0.250000  0.250000      4.000000
  0.500000  0.250000  0.250000      4.000000
 -0.375000  0.250000  0.250000      4.000000
  0.000000  0.375000  0.250000      2.000000
  0.125000  0.375000  0.250000      4.000000
  0.250000  0.375000  0.250000      4.000000
  0.375000  0.375000  0.250000      4.000000
  0.500000  0.375000  0.250000      4.000000
  0.000000  0.500000  0.250000      2.000000
  0.125000  0.500000  0.250000      4.000000
  0.250000  0.500000  0.250000      4.000000
  0.375000  0.500000  0.250000      4.000000
  0.000000 -0.375000  0.250000      2.000000
  0.125000 -0.375000  0.250000      4.000000
  0.250000 -0.375000  0.250000      4.000000
  0.000000 -0.250000  0.250000      2.000000
  0.125000 -0.250000  0.250000      4.000000
  0.000000 -0.125000  0.250000      2.000000
  0.000000  0.000000  0.500000      1.000000
  0.125000  0.000000  0.500000      4.000000
  0.250000  0.000000  0.500000      4.000000
  0.375000  0.000000  0.500000      4.000000
  0.500000  0.000000  0.500000      2.000000
  0.000000  0.125000  0.500000      2.000000
  0.125000  0.125000  0.500000      4.000000
  0.250000  0.125000  0.500000      4.000000
  0.375000  0.125000  0.500000      4.000000
  0.500000  0.125000  0.500000      4.000000
 -0.375000  0.125000  0.500000      4.000000
 -0.250000  0.125000  0.500000      2.000000
  0.000000  0.250000  0.500000      2.000000
  0.125000  0.250000  0.500000      4.000000
  0.250000  0.250000  0.500000      4.000000
  0.375000  0.250000  0.500000      4.000000
  0.500000  0.250000  0.500000      2.000000
  0.000000  0.375000  0.500000      2.000000
  0.125000  0.375000  0.500000      4.000000
  0.250000  0.375000  0.500000      2.000000
  0.000000  0.500000  0.500000      1.000000
 
 Following cartesian coordinates:
            Coordinates               Weight
  0.000000  0.000000  0.000000      1.000000
  0.019707  0.011264  0.000056      4.000000
  0.039414  0.022529  0.000113      4.000000
  0.059121  0.033793  0.000169      4.000000
  0.078828  0.045058  0.000225      2.000000
  0.000000  0.022529  0.000113      2.000000
  0.019707  0.033793  0.000169      4.000000
  0.039414  0.045058  0.000225      4.000000
  0.059121  0.056322  0.000282      4.000000
  0.078828  0.067586  0.000338      4.000000
 -0.059121 -0.011264 -0.000056      4.000000
 -0.039414 -0.000000 -0.000000      2.000000
  0.000000  0.045058  0.000225      2.000000
  0.019707  0.056322  0.000282      4.000000
  0.039414  0.067586  0.000338      4.000000
  0.059121  0.078851  0.000394      4.000000
  0.078828  0.090115  0.000451      2.000000
  0.000000  0.067586  0.000338      2.000000
  0.019707  0.078851  0.000394      4.000000
  0.039414  0.090115  0.000451      2.000000
  0.000000  0.090115  0.000451      1.000000
  0.000000  0.000121  0.024277      2.000000
  0.019707  0.011386  0.024334      4.000000
  0.039414  0.022650  0.024390      4.000000
  0.059121  0.033915  0.024446      4.000000
  0.078828  0.045179  0.024503      4.000000
 -0.059121 -0.033672  0.024108      4.000000
 -0.039414 -0.022407  0.024165      4.000000
 -0.019707 -0.011143  0.024221      4.000000
  0.000000  0.022650  0.024390      2.000000
  0.019707  0.033915  0.024446      4.000000
  0.039414  0.045179  0.024503      4.000000
  0.059121  0.056443  0.024559      4.000000
  0.078828  0.067708  0.024615      4.000000
 -0.059121 -0.011143  0.024221      4.000000
 -0.039414  0.000121  0.024277      4.000000
  0.000000  0.045179  0.024503      2.000000
  0.019707  0.056443  0.024559      4.000000
  0.039414  0.067708  0.024615      4.000000
  0.059121  0.078972  0.024671      4.000000
  0.078828  0.090237  0.024728      4.000000
 -0.059121  0.011386  0.024334      4.000000
  0.000000  0.067708  0.024615      2.000000
  0.019707  0.078972  0.024671      4.000000
  0.039414  0.090237  0.024728      4.000000
  0.059121  0.101501  0.024784      4.000000
  0.078828  0.112765  0.024840      4.000000
  0.000000  0.090237  0.024728      2.000000
  0.019707  0.101501  0.024784      4.000000
  0.039414  0.112765  0.024840      4.000000
  0.059121  0.124030  0.024897      4.000000
 -0.000000 -0.067465  0.023939      2.000000
  0.019707 -0.056201  0.023996      4.000000
  0.039414 -0.044936  0.024052      4.000000
 -0.000000 -0.044936  0.024052      2.000000
  0.019707 -0.033672  0.024108      4.000000
 -0.000000 -0.022407  0.024165      2.000000
  0.000000  0.000243  0.048554      1.000000
  0.019707  0.011507  0.048611      4.000000
  0.039414  0.022772  0.048667      4.000000
  0.059121  0.034036  0.048723      4.000000
  0.078828  0.045300  0.048780      2.000000
  0.000000  0.022772  0.048667      2.000000
  0.019707  0.034036  0.048723      4.000000
  0.039414  0.045300  0.048780      4.000000
  0.059121  0.056565  0.048836      4.000000
  0.078828  0.067829  0.048892      4.000000
 -0.059121 -0.011022  0.048498      4.000000
 -0.039414  0.000243  0.048554      2.000000
  0.000000  0.045300  0.048780      2.000000
  0.019707  0.056565  0.048836      4.000000
  0.039414  0.067829  0.048892      4.000000
  0.059121  0.079094  0.048949      4.000000
  0.078828  0.090358  0.049005      2.000000
  0.000000  0.067829  0.048892      2.000000
  0.019707  0.079094  0.048949      4.000000
  0.039414  0.090358  0.049005      2.000000
  0.000000  0.090358  0.049005      1.000000
 


--------------------------------------------------------------------------------------------------------




 Dimension of arrays:
   k-points           NKPTS =     78   k-points in BZ     NKDIM =     78   number of bands    NBANDS=     26
   number of dos      NEDOS =    301   number of ions     NIONS =     16
   non local maximal  LDIM  =      4   non local SUM 2l+1 LMDIM =      8
   total plane-waves  NPLWV =  69984
   max r-space proj   IRMAX =      1   max aug-charges    IRDMAX=   8402
   dimension x,y,z NGX =    36 NGY =   36 NGZ =   54
   dimension x,y,z NGXF=    72 NGYF=   72 NGZF=  108
   support grid    NGXF=    72 NGYF=   72 NGZF=  108
   ions per type =              16
 NGX,Y,Z   is equivalent  to a cutoff of   9.44,  9.36,  8.72 a.u.
 NGXF,Y,Z  is equivalent  to a cutoff of  18.87, 18.73, 17.43 a.u.


 I would recommend the setting:
   dimension x,y,z NGX =    33 NGY =   33 NGZ =   53
 SYSTEM =  Mg                                      
 POSCAR =  Mg                                      

 Startparameter for this run:
   NWRITE =      2    write-flag & timer
   PREC   = n         normal or accurate (medium, high low for compatibility)
   ISTART =      0    job   : 0-new  1-cont  2-samecut
   ICHARG =      2    charge: 1-file 2-atom 10-const
   ISPIN  =      1    spin polarized calculation?
   LNONCOLLINEAR =      F non collinear calculations
   LSORBIT =      F    spin-orbit coupling
   INIWAV =      1    electr: 0-lowe 1-rand  2-diag
   LASPH  =      F    aspherical Exc in radial PAW
   METAGGA=      F    non-selfconsistent MetaGGA calc.

 Electronic Relaxation 1
   ENCUT  =  450.0 eV  33.07 Ry    5.75 a.u.  10.97 11.05 17.81*2*pi/ulx,y,z
   ENINI  =  450.0     initial cutoff
   ENAUG  =  274.6 eV  augmentation charge cutoff
   NELM   =     40;   NELMIN=  4; NELMDL= -5     # of ELM steps 
   EDIFF  = 0.1E-05   stopping-criterion for ELM
   LREAL  =      F    real-space projection
   NLSPLINE    = F    spline interpolate recip. space projectors
   LCOMPAT=      F    compatible to vasp.4.4
   GGA_COMPAT  = T    GGA compatible to vasp.4.4-vasp.4.6
   LMAXPAW     = -100 max onsite density
   LMAXMIX     =    2 max onsite mixed and CHGCAR
   VOSKOWN=      0    Vosko Wilk Nusair interpolation
   ROPT   =    0.00000
 Ionic relaxation
   EDIFFG = -.1E-03   stopping-criterion for IOM
   NSW    =    100    number of steps for IOM
   NBLOCK =      1;   KBLOCK =    100    inner block; outer block 
   IBRION =      2    ionic relax: 0-MD 1-quasi-New 2-CG
   NFREE  =      1    steps in history (QN), initial steepest desc. (CG)
   ISIF   =      2    stress and relaxation
   IWAVPR =     11    prediction:  0-non 1-charg 2-wave 3-comb
   ISYM   =      2    0-nonsym 1-usesym 2-fastsym
   LCORR  =      T    Harris-Foulkes like correction to forces

   POTIM  = 0.3000    time-step for ionic-motion
   TEIN   =    0.0    initial temperature
   TEBEG  =    0.0;   TEEND  =   0.0 temperature during run
   SMASS  =  -3.00    Nose mass-parameter (am)
   estimated Nose-frequenzy (Omega)   =  0.10E-29 period in steps =****** mass=  -0.919E-27a.u.
   SCALEE = 1.0000    scale energy and forces
   NPACO  =    256;   APACO  = 16.0  distance and # of slots for P.C.
   PSTRESS=    0.0 pullay stress

  Mass of Ions in am
   POMASS =  24.30
  Ionic Valenz
   ZVAL   =   2.00
  Atomic Wigner-Seitz radii
   RWIGS  =  -1.00
  virtual crystal weights 
   VCA    =   1.00
   NELECT =      32.0000    total number of electrons
   NUPDOWN=      -1.0000    fix difference up-down

 DOS related values:
   EMIN   =  10.00;   EMAX   =-10.00  energy-range for DOS
   EFERMI =   0.00
   ISMEAR =    -1;   SIGMA  =   0.03  broadening in eV -4-tet -1-fermi 0-gaus

 Electronic relaxation 2 (details)
   IALGO  =     68    algorithm
   LDIAG  =      T    sub-space diagonalisation (order eigenvalues)
   LSUBROT=      F    optimize rotation matrix (better conditioning)
   TURBO    =      0    0=normal 1=particle mesh
   IRESTART =      0    0=no restart 2=restart with 2 vectors
   NREBOOT  =      0    no. of reboots
   NMIN     =      0    reboot dimension
   EREF     =   0.00    reference energy to select bands
   IMIX   =      4    mixing-type and parameters
     AMIX     =   0.40;   BMIX     =  1.00
     AMIX_MAG =   1.60;   BMIX_MAG =  1.00
     AMIN     =   0.10
     WC   =   100.;   INIMIX=   1;  MIXPRE=   1;  MAXMIX=  40

 Intra band minimization:
   WEIMIN = 0.0010     energy-eigenvalue tresh-hold
   EBREAK =  0.96E-08  absolut break condition
   DEPER  =   0.30     relativ break condition  

   TIME   =   0.40     timestep for ELM

  volume/ion in A,a.u.               =      22.65       152.86
  Fermi-wavevector in a.u.,A,eV,Ry     =   0.728990  1.377591  7.230489  0.531426
  Thomas-Fermi vector in A             =   1.820600

 Write flags
   LWAVE  =      F    write WAVECAR
   LCHARG =      F    write CHGCAR
   LVTOT  =      F    write LOCPOT, total local potential
   LVHAR  =      F    write LOCPOT, Hartree potential only
   LELF   =      F    write electronic localiz. function (ELF)
   LORBIT =      0    0 simple, 1 ext, 2 COOP (PROOUT)


 Dipole corrections
   LMONO  =      F    monopole corrections only (constant potential shift)
   LDIPOL =      F    correct potential (dipole corrections)
   IDIPOL =      0    1-x, 2-y, 3-z, 4-all directions 
   EPSILON=  1.0000000 bulk dielectric constant

 Exchange correlation treatment:
   GGA     =    91    GGA type
   LEXCH   =     7    internal setting for exchange type
   VOSKOWN=      0    Vosko Wilk Nusair interpolation
   LHFCALC =     F    Hartree Fock is set to
   LHFONE  =     F    Hartree Fock one center treatment
   AEXX    =    0.0000 exact exchange contribution

 Linear response parameters
   LEPSILON=     F    determine dielectric tensor
   LRPA    =     F    only Hartree local field effects (RPA)
   LNABLA  =     F    use nabla operator in PAW spheres
   LVEL    =     F    velocity operator in full k-point grid
   LINTERFAST=   F  fast interpolation
   KINTER  =     0    interpolate to denser k-point grid
   CSHIFT  =0.1000    complex shift for real part using Kramers Kronig
   OMEGAMAX=  -1.0    maximum frequency
   DEG_THRESHOLD= 0.2000000E-02 threshold for treating states as degnerate
   RTIME   =    0.100 relaxation time in fs

 Orbital magnetization related:
   ORBITALMAG=     F  switch on orbital magnetization
   LCHIMAG   =     F  perturbation theory with respect to B field
   DQ        =  0.001000  dq finite difference perturbation B field



--------------------------------------------------------------------------------------------------------


 conjugate gradient relaxation of ions
 charge density and potential will be updated during run
 non-spin polarized calculation
 RMM-DIIS sequential band-by-band and
  variant of blocked Davidson during initial phase
 perform sub-space diagonalisation
    before iterative eigenvector-optimisation
 modified Broyden-mixing scheme, WC =      100.0
 initial mixing is a Kerker type mixing with AMIX =  0.4000 and BMIX =      1.0000
 Hartree-type preconditioning will be used
 using additional bands           10
 reciprocal scheme for non local part
 use partial core corrections
 calculate Harris-corrections to forces   (improved forces if not selfconsistent)
 use gradient corrections 
 use of overlap-Matrix (Vanderbilt PP)
 Fermi-smearing in eV        SIGMA  =   0.03


--------------------------------------------------------------------------------------------------------


  energy-cutoff  :      450.00
  volume of cell :      362.42
      direct lattice vectors                 reciprocal lattice vectors
     6.342884570 -0.000000026  0.000000000     0.157656976  0.090115345  0.000450577
    -3.171445888  5.548589649 -0.027742948     0.000000001  0.180230485  0.000901152
     0.000000000 -0.051489864 10.297972898     0.000000000  0.000485545  0.097108918

  length of vectors
     6.342884570  6.391062963 10.298101621     0.181594880  0.180232738  0.097110131



 k-points in units of 2pi/SCALE and weight: Automatic                               
   0.00000000  0.00000000  0.00000000       0.004
   0.01970712  0.01126442  0.00005632       0.016
   0.03941424  0.02252884  0.00011264       0.016
   0.05912137  0.03379325  0.00016897       0.016
   0.07882849  0.04505767  0.00022529       0.008
   0.00000000  0.02252881  0.00011264       0.008
   0.01970712  0.03379323  0.00016897       0.016
   0.03941424  0.04505765  0.00022529       0.016
   0.05912137  0.05632206  0.00028161       0.016
   0.07882849  0.06758648  0.00033793       0.016
  -0.05912137 -0.01126444 -0.00005632       0.016
  -0.03941424 -0.00000003 -0.00000000       0.008
   0.00000000  0.04505762  0.00022529       0.008
   0.01970712  0.05632204  0.00028161       0.016
   0.03941424  0.06758646  0.00033793       0.016
   0.05912137  0.07885088  0.00039425       0.016
   0.07882849  0.09011529  0.00045058       0.008
   0.00000000  0.06758643  0.00033793       0.008
   0.01970712  0.07885085  0.00039425       0.016
   0.03941424  0.09011527  0.00045058       0.008
   0.00000000  0.09011524  0.00045058       0.004
   0.00000000  0.00012139  0.02427723       0.008
   0.01970712  0.01138580  0.02433355       0.016
   0.03941424  0.02265022  0.02438987       0.016
   0.05912137  0.03391464  0.02444620       0.016
   0.07882849  0.04517906  0.02450252       0.016
  -0.05912137 -0.03367187  0.02410826       0.016
  -0.03941424 -0.02240745  0.02416459       0.016
  -0.01970712 -0.01114303  0.02422091       0.016
   0.00000000  0.02265020  0.02438987       0.008
   0.01970712  0.03391461  0.02444620       0.016
   0.03941424  0.04517903  0.02450252       0.016
   0.05912137  0.05644345  0.02455884       0.016
   0.07882849  0.06770787  0.02461516       0.016
  -0.05912137 -0.01114306  0.02422091       0.016
  -0.03941424  0.00012136  0.02427723       0.016
   0.00000000  0.04517901  0.02450252       0.008
   0.01970712  0.05644343  0.02455884       0.016
   0.03941424  0.06770784  0.02461516       0.016
   0.05912137  0.07897226  0.02467148       0.016
   0.07882849  0.09023668  0.02472781       0.016
  -0.05912137  0.01138575  0.02433355       0.016
   0.00000000  0.06770782  0.02461516       0.008
   0.01970712  0.07897224  0.02467148       0.016
   0.03941424  0.09023665  0.02472781       0.016
   0.05912137  0.10150107  0.02478413       0.016
   0.07882849  0.11276549  0.02484045       0.016
   0.00000000  0.09023663  0.02472781       0.008
   0.01970712  0.10150105  0.02478413       0.016
   0.03941424  0.11276546  0.02484045       0.016
   0.05912137  0.12402988  0.02489677       0.016
  -0.00000000 -0.06746505  0.02393930       0.008
   0.01970712 -0.05620063  0.02399562       0.016
   0.03941424 -0.04493621  0.02405194       0.016
  -0.00000000 -0.04493624  0.02405194       0.008
   0.01970712 -0.03367182  0.02410826       0.016
  -0.00000000 -0.02240742  0.02416459       0.008
   0.00000000  0.00024277  0.04855446       0.004
   0.01970712  0.01150719  0.04861078       0.016
   0.03941424  0.02277161  0.04866710       0.016
   0.05912137  0.03403603  0.04872343       0.016
   0.07882849  0.04530044  0.04877975       0.008
   0.00000000  0.02277158  0.04866710       0.008
   0.01970712  0.03403600  0.04872342       0.016
   0.03941424  0.04530042  0.04877975       0.016
   0.05912137  0.05656484  0.04883607       0.016
   0.07882849  0.06782926  0.04889239       0.016
  -0.05912137 -0.01102167  0.04849814       0.016
  -0.03941424  0.00024275  0.04855446       0.008
   0.00000000  0.04530039  0.04877975       0.008
   0.01970712  0.05656481  0.04883607       0.016
   0.03941424  0.06782923  0.04889239       0.016
   0.05912137  0.07909365  0.04894871       0.016
   0.07882849  0.09035807  0.04900504       0.008
   0.00000000  0.06782920  0.04889239       0.008
   0.01970712  0.07909362  0.04894871       0.016
   0.03941424  0.09035804  0.04900504       0.008
   0.00000000  0.09035801  0.04900503       0.004

 k-points in reciprocal lattice and weights: Automatic                               
   0.00000000  0.00000000  0.00000000       0.004
   0.12500000  0.00000000  0.00000000       0.016
   0.25000000  0.00000000  0.00000000       0.016
   0.37500000  0.00000000  0.00000000       0.016
   0.50000000  0.00000000  0.00000000       0.008
   0.00000000  0.12500000  0.00000000       0.008
   0.12500000  0.12500000  0.00000000       0.016
   0.25000000  0.12500000  0.00000000       0.016
   0.37500000  0.12500000  0.00000000       0.016
   0.50000000  0.12500000  0.00000000       0.016
  -0.37500000  0.12500000  0.00000000       0.016
  -0.25000000  0.12500000  0.00000000       0.008
   0.00000000  0.25000000  0.00000000       0.008
   0.12500000  0.25000000  0.00000000       0.016
   0.25000000  0.25000000  0.00000000       0.016
   0.37500000  0.25000000  0.00000000       0.016
   0.50000000  0.25000000  0.00000000       0.008
   0.00000000  0.37500000  0.00000000       0.008
   0.12500000  0.37500000  0.00000000       0.016
   0.25000000  0.37500000  0.00000000       0.008
   0.00000000  0.50000000  0.00000000       0.004
   0.00000000  0.00000000  0.25000000       0.008
   0.12500000  0.00000000  0.25000000       0.016
   0.25000000  0.00000000  0.25000000       0.016
   0.37500000  0.00000000  0.25000000       0.016
   0.50000000  0.00000000  0.25000000       0.016
  -0.37500000  0.00000000  0.25000000       0.016
  -0.25000000  0.00000000  0.25000000       0.016
  -0.12500000  0.00000000  0.25000000       0.016
   0.00000000  0.12500000  0.25000000       0.008
   0.12500000  0.12500000  0.25000000       0.016
   0.25000000  0.12500000  0.25000000       0.016
   0.37500000  0.12500000  0.25000000       0.016
   0.50000000  0.12500000  0.25000000       0.016
  -0.37500000  0.12500000  0.25000000       0.016
  -0.25000000  0.12500000  0.25000000       0.016
   0.00000000  0.25000000  0.25000000       0.008
   0.12500000  0.25000000  0.25000000       0.016
   0.25000000  0.25000000  0.25000000       0.016
   0.37500000  0.25000000  0.25000000       0.016
   0.50000000  0.25000000  0.25000000       0.016
  -0.37500000  0.25000000  0.25000000       0.016
   0.00000000  0.37500000  0.25000000       0.008
   0.12500000  0.37500000  0.25000000       0.016
   0.25000000  0.37500000  0.25000000       0.016
   0.37500000  0.37500000  0.25000000       0.016
   0.50000000  0.37500000  0.25000000       0.016
   0.00000000  0.50000000  0.25000000       0.008
   0.12500000  0.50000000  0.25000000       0.016
   0.25000000  0.50000000  0.25000000       0.016
   0.37500000  0.50000000  0.25000000       0.016
   0.00000000 -0.37500000  0.25000000       0.008
   0.12500000 -0.37500000  0.25000000       0.016
   0.25000000 -0.37500000  0.25000000       0.016
   0.00000000 -0.25000000  0.25000000       0.008
   0.12500000 -0.25000000  0.25000000       0.016
   0.00000000 -0.12500000  0.25000000       0.008
   0.00000000  0.00000000  0.50000000       0.004
   0.12500000  0.00000000  0.50000000       0.016
   0.25000000  0.00000000  0.50000000       0.016
   0.37500000  0.00000000  0.50000000       0.016
   0.50000000  0.00000000  0.50000000       0.008
   0.00000000  0.12500000  0.50000000       0.008
   0.12500000  0.12500000  0.50000000       0.016
   0.25000000  0.12500000  0.50000000       0.016
   0.37500000  0.12500000  0.50000000       0.016
   0.50000000  0.12500000  0.50000000       0.016
  -0.37500000  0.12500000  0.50000000       0.016
  -0.25000000  0.12500000  0.50000000       0.008
   0.00000000  0.25000000  0.50000000       0.008
   0.12500000  0.25000000  0.50000000       0.016
   0.25000000  0.25000000  0.50000000       0.016
   0.37500000  0.25000000  0.50000000       0.016
   0.50000000  0.25000000  0.50000000       0.008
   0.00000000  0.37500000  0.50000000       0.008
   0.12500000  0.37500000  0.50000000       0.016
   0.25000000  0.37500000  0.50000000       0.008
   0.00000000  0.50000000  0.50000000       0.004

 position of ions in fractional coordinates (direct lattice) 
   0.16666649  0.33333349  0.12500000
   0.16666649  0.33333349  0.62500000
   0.16666649  0.83333349  0.12500000
   0.16666649  0.83333349  0.62500000
   0.66666651  0.33333349  0.12500000
   0.66666651  0.33333349  0.62500000
   0.66666651  0.83333349  0.12500000
   0.66666651  0.83333349  0.62500000
   0.33333349  0.16666649  0.37500000
   0.33333349  0.16666649  0.87500000
   0.33333349  0.66666651  0.37500000
   0.33333349  0.66666651  0.87500000
   0.83333349  0.16666649  0.37500000
   0.83333349  0.16666649  0.87500000
   0.83333349  0.66666651  0.37500000
   0.83333349  0.66666651  0.87500000

 position of ions in cartesian coordinates  (Angst):
  -0.00000281  1.84309453  1.27799896
  -0.00000281  1.81734959  6.42698541
  -1.58572575  4.61738935  1.26412748
  -1.58572575  4.59164442  6.41311393
   3.17143957  1.84309451  1.27799896
   3.17143957  1.81734958  6.42698541
   1.58571663  4.61738934  1.26412748
   1.58571663  4.59164441  6.41311393
   1.58572210  0.90545527  3.85711602
   1.58572210  0.87971034  9.00610247
  -0.00000089  3.67975018  3.84324454
  -0.00000089  3.65400525  8.99223099
   4.75716438  0.90545526  3.85711602
   4.75716438  0.87971033  9.00610247
   3.17144139  3.67975017  3.84324454
   3.17144139  3.65400523  8.99223099



--------------------------------------------------------------------------------------------------------


 k-point  1 :   0.0000 0.0000 0.0000  plane waves:    7801
 k-point  2 :   0.1250 0.0000 0.0000  plane waves:    7823
 k-point  3 :   0.2500 0.0000 0.0000  plane waves:    7855
 k-point  4 :   0.3750 0.0000 0.0000  plane waves:    7861
 k-point  5 :   0.5000 0.0000 0.0000  plane waves:    7862
 k-point  6 :   0.0000 0.1250 0.0000  plane waves:    7825
 k-point  7 :   0.1250 0.1250 0.0000  plane waves:    7826
 k-point  8 :   0.2500 0.1250 0.0000  plane waves:    7857
 k-point  9 :   0.3750 0.1250 0.0000  plane waves:    7870
 k-point 10 :   0.5000 0.1250 0.0000  plane waves:    7858
 k-point 11 :  -0.3750 0.1250 0.0000  plane waves:    7854
 k-point 12 :  -0.2500 0.1250 0.0000  plane waves:    7867
 k-point 13 :   0.0000 0.2500 0.0000  plane waves:    7848
 k-point 14 :   0.1250 0.2500 0.0000  plane waves:    7850
 k-point 15 :   0.2500 0.2500 0.0000  plane waves:    7861
 k-point 16 :   0.3750 0.2500 0.0000  plane waves:    7883
 k-point 17 :   0.5000 0.2500 0.0000  plane waves:    7859
 k-point 18 :   0.0000 0.3750 0.0000  plane waves:    7856
 k-point 19 :   0.1250 0.3750 0.0000  plane waves:    7873
 k-point 20 :   0.2500 0.3750 0.0000  plane waves:    7867
 k-point 21 :   0.0000 0.5000 0.0000  plane waves:    7858
 k-point 22 :   0.0000 0.0000 0.2500  plane waves:    7809
 k-point 23 :   0.1250 0.0000 0.2500  plane waves:    7828
 k-point 24 :   0.2500 0.0000 0.2500  plane waves:    7857
 k-point 25 :   0.3750 0.0000 0.2500  plane waves:    7845
 k-point 26 :   0.5000 0.0000 0.2500  plane waves:    7870
 k-point 27 :  -0.3750 0.0000 0.2500  plane waves:    7868
 k-point 28 :  -0.2500 0.0000 0.2500  plane waves:    7848
 k-point 29 :  -0.1250 0.0000 0.2500  plane waves:    7832
 k-point 30 :   0.0000 0.1250 0.2500  plane waves:    7843
 k-point 31 :   0.1250 0.1250 0.2500  plane waves:    7841
 k-point 32 :   0.2500 0.1250 0.2500  plane waves:    7857
 k-point 33 :   0.3750 0.1250 0.2500  plane waves:    7861
 k-point 34 :   0.5000 0.1250 0.2500  plane waves:    7858
 k-point 35 :  -0.3750 0.1250 0.2500  plane waves:    7853
 k-point 36 :  -0.2500 0.1250 0.2500  plane waves:    7850
 k-point 37 :   0.0000 0.2500 0.2500  plane waves:    7847
 k-point 38 :   0.1250 0.2500 0.2500  plane waves:    7862
 k-point 39 :   0.2500 0.2500 0.2500  plane waves:    7857
 k-point 40 :   0.3750 0.2500 0.2500  plane waves:    7863
 k-point 41 :   0.5000 0.2500 0.2500  plane waves:    7863
 k-point 42 :  -0.3750 0.2500 0.2500  plane waves:    7867
 k-point 43 :   0.0000 0.3750 0.2500  plane waves:    7853
 k-point 44 :   0.1250 0.3750 0.2500  plane waves:    7870
 k-point 45 :   0.2500 0.3750 0.2500  plane waves:    7852
 k-point 46 :   0.3750 0.3750 0.2500  plane waves:    7866
 k-point 47 :   0.5000 0.3750 0.2500  plane waves:    7856
 k-point 48 :   0.0000 0.5000 0.2500  plane waves:    7869
 k-point 49 :   0.1250 0.5000 0.2500  plane waves:    7878
 k-point 50 :   0.2500 0.5000 0.2500  plane waves:    7864
 k-point 51 :   0.3750 0.5000 0.2500  plane waves:    7866
 k-point 52 :   0.0000-0.3750 0.2500  plane waves:    7868
 k-point 53 :   0.1250-0.3750 0.2500  plane waves:    7862
 k-point 54 :   0.2500-0.3750 0.2500  plane waves:    7864
 k-point 55 :   0.0000-0.2500 0.2500  plane waves:    7839
 k-point 56 :   0.1250-0.2500 0.2500  plane waves:    7835
 k-point 57 :   0.0000-0.1250 0.2500  plane waves:    7814
 k-point 58 :   0.0000 0.0000 0.5000  plane waves:    7820
 k-point 59 :   0.1250 0.0000 0.5000  plane waves:    7848
 k-point 60 :   0.2500 0.0000 0.5000  plane waves:    7846
 k-point 61 :   0.3750 0.0000 0.5000  plane waves:    7852
 k-point 62 :   0.5000 0.0000 0.5000  plane waves:    7858
 k-point 63 :   0.0000 0.1250 0.5000  plane waves:    7846
 k-point 64 :   0.1250 0.1250 0.5000  plane waves:    7850
 k-point 65 :   0.2500 0.1250 0.5000  plane waves:    7865
 k-point 66 :   0.3750 0.1250 0.5000  plane waves:    7858
 k-point 67 :   0.5000 0.1250 0.5000  plane waves:    7864
 k-point 68 :  -0.3750 0.1250 0.5000  plane waves:    7858
 k-point 69 :  -0.2500 0.1250 0.5000  plane waves:    7858
 k-point 70 :   0.0000 0.2500 0.5000  plane waves:    7864
 k-point 71 :   0.1250 0.2500 0.5000  plane waves:    7866
 k-point 72 :   0.2500 0.2500 0.5000  plane waves:    7874
 k-point 73 :   0.3750 0.2500 0.5000  plane waves:    7866
 k-point 74 :   0.5000 0.2500 0.5000  plane waves:    7874
 k-point 75 :   0.0000 0.3750 0.5000  plane waves:    7867
 k-point 76 :   0.1250 0.3750 0.5000  plane waves:    7855
 k-point 77 :   0.2500 0.3750 0.5000  plane waves:    7862
 k-point 78 :   0.0000 0.5000 0.5000  plane waves:    7844

 maximum and minimum number of plane-waves per node :       681      634

 maximum number of plane-waves:      7883
 maximum index in each direction: 
   IXMAX=   11   IYMAX=   11   IZMAX=   17
   IXMIN=  -11   IYMIN=  -11   IZMIN=  -18

 WARNING: aliasing errors must be expected set NGX to  46 to avoid them
 WARNING: aliasing errors must be expected set NGY to  46 to avoid them
 WARNING: aliasing errors must be expected set NGZ to  72 to avoid them
 aliasing errors are usually negligible using standard VASP settings
 and one can safely disregard these warnings

 parallel 3D FFT for wavefunctions:
    minimum data exchange during FFTs selected (reduces bandwidth)
 parallel 3D FFT for charge:
    minimum data exchange during FFTs selected (reduces bandwidth)


 total amount of memory used by VASP on root node    46782. kBytes
========================================================================

   base      :      30000. kBytes
   nonl-proj :       3463. kBytes
   fftplans  :        978. kBytes
   grid      :       1368. kBytes
   one-center:          6. kBytes
   wavefun   :      10967. kBytes

     INWAV:  cpu time    0.00: real time    0.00
 Broyden mixing: mesh for mixing (old mesh)
   NGX = 21   NGY = 23   NGZ = 35
  (NGX  = 72   NGY  = 72   NGZ  =108)
  gives a total of  16905 points

 initial charge density was supplied:
 charge density of overlapping atoms calculated
 number of electron      32.0000000 magnetization 
 keeping initial charge density in first step


--------------------------------------------------------------------------------------------------------


 Maximum index for augmentation-charges          424 (set IRDMAX)


--------------------------------------------------------------------------------------------------------


 First call to EWALD:  gamma=   0.249
 Maximum number of real-space cells 3x 3x 2
 Maximum number of reciprocal cells 2x 3x 4

 FEWALD executed in parallel
    FEWALD:  cpu time    0.00: real time    0.00


----------------------------------------- Iteration    1(   1)  ---------------------------------------


    POTLOK:  cpu time    0.03: real time    0.03
    SETDIJ:  cpu time    0.00: real time    0.00
     EDDAV:  cpu time    0.65: real time    0.65
       DOS:  cpu time    0.00: real time    0.00
    --------------------------------------------
      LOOP:  cpu time    0.68: real time    0.69

 eigenvalue-minimisations  :  4056
 total energy-change (2. order) : 0.2818745E+02  (-0.8505756E+03)
 number of electron      32.0000000 magnetization 
 augmentation part       32.0000000 magnetization 

 Free energy of the ion-electron system (eV)
  ---------------------------------------------------
  alpha Z        PSCENC =       -12.20331811
  Ewald energy   TEWEN  =      -470.34591005
  -Hartree energ DENC   =        -0.46165976
  -exchange      EXHF   =         0.00000000
  -V(xc)+E(xc)   XCENC  =      -130.54289973
  PAW double counting   =       186.18586259       -8.88314254
  entropy T*S    EENTRO =        -0.00599756
  eigenvalues    EBANDS =        95.12909322
  atomic energy  EATOM  =       369.31542285
  ---------------------------------------------------
  free energy    TOTEN  =        28.18745091 eV

  energy without entropy =       28.19344847  energy(sigma->0) =       28.19044969


--------------------------------------------------------------------------------------------------------




----------------------------------------- Iteration    1(   2)  ---------------------------------------


     EDDAV:  cpu time    0.73: real time    0.74
       DOS:  cpu time    0.00: real time    0.00
    --------------------------------------------
      LOOP:  cpu time    0.74: real time    0.75

 eigenvalue-minimisations  :  4896
 total energy-change (2. order) :-0.5011981E+02  (-0.4618607E+02)
 number of electron      32.0000000 magnetization 
 augmentation part       32.0000000 magnetization 

 Free energy of the ion-electron system (eV)
  ---------------------------------------------------
  alpha Z        PSCENC =       -12.20331811
  Ewald energy   TEWEN  =      -470.34591005
  -Hartree energ DENC   =        -0.46165976
  -exchange      EXHF   =         0.00000000
  -V(xc)+E(xc)   XCENC  =      -130.54289973
  PAW double counting   =       186.18586259       -8.88314254
  entropy T*S    EENTRO =        -0.01357829
  eigenvalues    EBANDS =        45.01686882
  atomic energy  EATOM  =       369.31542285
  ---------------------------------------------------
  free energy    TOTEN  =       -21.93235422 eV

  energy without entropy =      -21.91877593  energy(sigma->0) =      -21.92556508


--------------------------------------------------------------------------------------------------------




----------------------------------------- Iteration    1(   3)  ---------------------------------------


     EDDAV:  cpu time    0.78: real time    0.78
       DOS:  cpu time    0.00: real time    0.00
    --------------------------------------------
      LOOP:  cpu time    0.78: real time    0.79

 eigenvalue-minimisations  :  5230
 total energy-change (2. order) :-0.2353217E+01  (-0.2257160E+01)
 number of electron      32.0000000 magnetization 
 augmentation part       32.0000000 magnetization 

 Free energy of the ion-electron system (eV)
  ---------------------------------------------------
  alpha Z        PSCENC =       -12.20331811
  Ewald energy   TEWEN  =      -470.34591005
  -Hartree energ DENC   =        -0.46165976
  -exchange      EXHF   =         0.00000000
  -V(xc)+E(xc)   XCENC  =      -130.54289973
  PAW double counting   =       186.18586259       -8.88314254
  entropy T*S    EENTRO =        -0.01620953
  eigenvalues    EBANDS =        42.66628318
  atomic energy  EATOM  =       369.31542285
  ---------------------------------------------------
  free energy    TOTEN  =       -24.28557110 eV

  energy without entropy =      -24.26936157  energy(sigma->0) =      -24.27746633


--------------------------------------------------------------------------------------------------------




----------------------------------------- Iteration    1(   4)  ---------------------------------------


     EDDAV:  cpu time    0.78: real time    0.78
       DOS:  cpu time    0.00: real time    0.00
    --------------------------------------------
      LOOP:  cpu time    0.78: real time    0.79

 eigenvalue-minimisations  :  5410
 total energy-change (2. order) :-0.6163783E-01  (-0.6136803E-01)
 number of electron      32.0000000 magnetization 
 augmentation part       32.0000000 magnetization 

 Free energy of the ion-electron system (eV)
  ---------------------------------------------------
  alpha Z        PSCENC =       -12.20331811
  Ewald energy   TEWEN  =      -470.34591005
  -Hartree energ DENC   =        -0.46165976
  -exchange      EXHF   =         0.00000000
  -V(xc)+E(xc)   XCENC  =      -130.54289973
  PAW double counting   =       186.18586259       -8.88314254
  entropy T*S    EENTRO =        -0.01604686
  eigenvalues    EBANDS =        42.60448268
  atomic energy  EATOM  =       369.31542285
  ---------------------------------------------------
  free energy    TOTEN  =       -24.34720893 eV

  energy without entropy =      -24.33116208  energy(sigma->0) =      -24.33918551


--------------------------------------------------------------------------------------------------------




----------------------------------------- Iteration    1(   5)  ---------------------------------------


     EDDAV:  cpu time    0.79: real time    0.79
       DOS:  cpu time    0.00: real time    0.00
    CHARGE:  cpu time    0.07: real time    0.07
    MIXING:  cpu time    0.00: real time    0.00
    --------------------------------------------
      LOOP:  cpu time    0.86: real time    0.88

 eigenvalue-minimisations  :  5382
 total energy-change (2. order) :-0.1768152E-02  (-0.1767896E-02)
 number of electron      32.0000000 magnetization 
 augmentation part        0.1034498 magnetization 

 Broyden mixing:
  rms(total) = 0.27488E+00    rms(broyden)= 0.27488E+00
  rms(prec ) = 0.36338E+00
  weight for this iteration     100.00

 Free energy of the ion-electron system (eV)
  ---------------------------------------------------
  alpha Z        PSCENC =       -12.20331811
  Ewald energy   TEWEN  =      -470.34591005
  -Hartree energ DENC   =        -0.46165976
  -exchange      EXHF   =         0.00000000
  -V(xc)+E(xc)   XCENC  =      -130.54289973
  PAW double counting   =       186.18586259       -8.88314254
  entropy T*S    EENTRO =        -0.01604518
  eigenvalues    EBANDS =        42.60271285
  atomic energy  EATOM  =       369.31542285
  ---------------------------------------------------
  free energy    TOTEN  =       -24.34897709 eV

  energy without entropy =      -24.33293191  energy(sigma->0) =      -24.34095450


--------------------------------------------------------------------------------------------------------




----------------------------------------- Iteration    1(   6)  ---------------------------------------


    POTLOK:  cpu time    0.02: real time    0.02
    SETDIJ:  cpu time    0.00: real time    0.00
    EDDIAG:  cpu time    0.15: real time    0.15
  RMM-DIIS:  cpu time    0.46: real time    0.46
    ORTHCH:  cpu time    0.01: real time    0.01
       DOS:  cpu time    0.00: real time    0.00
    CHARGE:  cpu time    0.06: real time    0.07
    MIXING:  cpu time    0.00: real time    0.00
    --------------------------------------------
      LOOP:  cpu time    0.71: real time    0.72

 eigenvalue-minimisations  :  4056
 total energy-change (2. order) : 0.4488734E-03  (-0.8148787E-03)
 number of electron      32.0000000 magnetization 
 augmentation part        0.1028452 magnetization 

 Broyden mixing:
  rms(total) = 0.17611E+00    rms(broyden)= 0.17611E+00
  rms(prec ) = 0.23495E+00
  weight for this iteration     100.00

 eigenvalues of (default mixing * dielectric matrix)
  average eigenvalue GAMMA=   2.7540
  2.7540

 Free energy of the ion-electron system (eV)
  ---------------------------------------------------
  alpha Z        PSCENC =       -12.20331811
  Ewald energy   TEWEN  =      -470.34591005
  -Hartree energ DENC   =        -0.46466156
  -exchange      EXHF   =         0.00000000
  -V(xc)+E(xc)   XCENC  =      -130.12767356
  PAW double counting   =       185.82201857       -8.51263720
  entropy T*S    EENTRO =        -0.01602029
  eigenvalues    EBANDS =        42.18425113
  atomic energy  EATOM  =       369.31542285
  ---------------------------------------------------
  free energy    TOTEN  =       -24.34852821 eV

  energy without entropy =      -24.33250792  energy(sigma->0) =      -24.34051807


--------------------------------------------------------------------------------------------------------




----------------------------------------- Iteration    1(   7)  ---------------------------------------


    POTLOK:  cpu time    0.02: real time    0.02
    SETDIJ:  cpu time    0.00: real time    0.00
    EDDIAG:  cpu time    0.15: real time    0.15
  RMM-DIIS:  cpu time    0.46: real time    0.46
    ORTHCH:  cpu time    0.01: real time    0.01
       DOS:  cpu time    0.00: real time    0.00
    CHARGE:  cpu time    0.06: real time    0.07
    MIXING:  cpu time    0.00: real time    0.00
    --------------------------------------------
      LOOP:  cpu time    0.71: real time    0.72

 eigenvalue-minimisations  :  4056
 total energy-change (2. order) :-0.5510733E-02  (-0.2920019E-02)
 number of electron      32.0000000 magnetization 
 augmentation part        0.1023147 magnetization 

 Broyden mixing:
  rms(total) = 0.11621E-01    rms(broyden)= 0.11621E-01
  rms(prec ) = 0.13091E-01
  weight for this iteration     100.00

 eigenvalues of (default mixing * dielectric matrix)
  average eigenvalue GAMMA=   2.4405
  2.0471  2.8338

 Free energy of the ion-electron system (eV)
  ---------------------------------------------------
  alpha Z        PSCENC =       -12.20331811
  Ewald energy   TEWEN  =      -470.34591005
  -Hartree energ DENC   =        -0.94198926
  -exchange      EXHF   =         0.00000000
  -V(xc)+E(xc)   XCENC  =      -129.13636882
  PAW double counting   =       185.22111659       -7.90636381
  entropy T*S    EENTRO =        -0.01602572
  eigenvalues    EBANDS =        41.65939738
  atomic energy  EATOM  =       369.31542285
  ---------------------------------------------------
  free energy    TOTEN  =       -24.35403895 eV

  energy without entropy =      -24.33801322  energy(sigma->0) =      -24.34602608


--------------------------------------------------------------------------------------------------------




----------------------------------------- Iteration    1(   8)  ---------------------------------------


    POTLOK:  cpu time    0.02: real time    0.02
    SETDIJ:  cpu time    0.00: real time    0.00
    EDDIAG:  cpu time    0.15: real time    0.15
  RMM-DIIS:  cpu time    0.46: real time    0.46
    ORTHCH:  cpu time    0.01: real time    0.01
       DOS:  cpu time    0.00: real time    0.00
    CHARGE:  cpu time    0.07: real time    0.07
    MIXING:  cpu time    0.00: real time    0.00
    --------------------------------------------
      LOOP:  cpu time    0.71: real time    0.72

 eigenvalue-minimisations  :  4060
 total energy-change (2. order) : 0.1525247E-03  (-0.2453619E-04)
 number of electron      32.0000000 magnetization 
 augmentation part        0.1022943 magnetization 

 Broyden mixing:
  rms(total) = 0.38773E-02    rms(broyden)= 0.38773E-02
  rms(prec ) = 0.41249E-02
  weight for this iteration     100.00

 eigenvalues of (default mixing * dielectric matrix)
  average eigenvalue GAMMA=   2.1399
  1.0025  2.8526  2.5645

 Free energy of the ion-electron system (eV)
  ---------------------------------------------------
  alpha Z        PSCENC =       -12.20331811
  Ewald energy   TEWEN  =      -470.34591005
  -Hartree energ DENC   =        -0.96942819
  -exchange      EXHF   =         0.00000000
  -V(xc)+E(xc)   XCENC  =      -129.09912845
  PAW double counting   =       185.25965396       -7.94534704
  entropy T*S    EENTRO =        -0.01602747
  eigenvalues    EBANDS =        41.65019608
  atomic energy  EATOM  =       369.31542285
  ---------------------------------------------------
  free energy    TOTEN  =       -24.35388642 eV

  energy without entropy =      -24.33785895  energy(sigma->0) =      -24.34587268


--------------------------------------------------------------------------------------------------------




----------------------------------------- Iteration    1(   9)  ---------------------------------------


    POTLOK:  cpu time    0.02: real time    0.02
    SETDIJ:  cpu time    0.00: real time    0.00
    EDDIAG:  cpu time    0.15: real time    0.15
  RMM-DIIS:  cpu time    0.46: real time    0.46
    ORTHCH:  cpu time    0.01: real time    0.01
       DOS:  cpu time    0.00: real time    0.00
    CHARGE:  cpu time    0.06: real time    0.07
    MIXING:  cpu time    0.00: real time    0.00
    --------------------------------------------
      LOOP:  cpu time    0.71: real time    0.72

 eigenvalue-minimisations  :  4100
 total energy-change (2. order) :-0.8512150E-05  (-0.4478315E-05)
 number of electron      32.0000000 magnetization 
 augmentation part        0.1024420 magnetization 

 Broyden mixing:
  rms(total) = 0.21502E-03    rms(broyden)= 0.21502E-03
  rms(prec ) = 0.25569E-03
  weight for this iteration     100.00

 eigenvalues of (default mixing * dielectric matrix)
  average eigenvalue GAMMA=   2.1928
  1.0014  2.9391  2.4154  2.4154

 Free energy of the ion-electron system (eV)
  ---------------------------------------------------
  alpha Z        PSCENC =       -12.20331811
  Ewald energy   TEWEN  =      -470.34591005
  -Hartree energ DENC   =        -0.97563257
  -exchange      EXHF   =         0.00000000
  -V(xc)+E(xc)   XCENC  =      -129.09133963
  PAW double counting   =       185.28604305       -7.97267686
  entropy T*S    EENTRO =        -0.01602768
  eigenvalues    EBANDS =        41.64954407
  atomic energy  EATOM  =       369.31542285
  ---------------------------------------------------
  free energy    TOTEN  =       -24.35389493 eV

  energy without entropy =      -24.33786725  energy(sigma->0) =      -24.34588109


--------------------------------------------------------------------------------------------------------




----------------------------------------- Iteration    1(  10)  ---------------------------------------


    POTLOK:  cpu time    0.02: real time    0.02
    SETDIJ:  cpu time    0.00: real time    0.00
    EDDIAG:  cpu time    0.15: real time    0.15
  RMM-DIIS:  cpu time    0.46: real time    0.46
    ORTHCH:  cpu time    0.01: real time    0.01
       DOS:  cpu time    0.00: real time    0.00
    CHARGE:  cpu time    0.06: real time    0.07
    MIXING:  cpu time    0.00: real time    0.00
    --------------------------------------------
      LOOP:  cpu time    0.70: real time    0.72

 eigenvalue-minimisations  :  3981
 total energy-change (2. order) :-0.3660213E-05  (-0.7278005E-06)
 number of electron      32.0000000 magnetization 
 augmentation part        0.1025401 magnetization 

 Broyden mixing:
  rms(total) = 0.88311E-04    rms(broyden)= 0.88311E-04
  rms(prec ) = 0.11432E-03
  weight for this iteration     100.00

 eigenvalues of (default mixing * dielectric matrix)
  average eigenvalue GAMMA=   2.0367
  2.8042  2.8042  2.4525  1.0056  1.1170

 Free energy of the ion-electron system (eV)
  ---------------------------------------------------
  alpha Z        PSCENC =       -12.20331811
  Ewald energy   TEWEN  =      -470.34591005
  -Hartree energ DENC   =        -0.97624043
  -exchange      EXHF   =         0.00000000
  -V(xc)+E(xc)   XCENC  =      -129.09034087
  PAW double counting   =       185.29179014       -7.97929664
  entropy T*S    EENTRO =        -0.01602781
  eigenvalues    EBANDS =        41.65002233
  atomic energy  EATOM  =       369.31542285
  ---------------------------------------------------
  free energy    TOTEN  =       -24.35389859 eV

  energy without entropy =      -24.33787079  energy(sigma->0) =      -24.34588469


--------------------------------------------------------------------------------------------------------




----------------------------------------- Iteration    1(  11)  ---------------------------------------


    POTLOK:  cpu time    0.02: real time    0.02
    SETDIJ:  cpu time    0.00: real time    0.00
    EDDIAG:  cpu time    0.15: real time    0.15
  RMM-DIIS:  cpu time    0.31: real time    0.31
    ORTHCH:  cpu time    0.01: real time    0.01
       DOS:  cpu time    0.00: real time    0.00
    CHARGE:  cpu time    0.07: real time    0.07
    MIXING:  cpu time    0.00: real time    0.00
    --------------------------------------------
      LOOP:  cpu time    0.56: real time    0.57

 eigenvalue-minimisations  :  2476
 total energy-change (2. order) :-0.1139657E-05  (-0.4873782E-07)
 number of electron      32.0000000 magnetization 
 augmentation part        0.1025536 magnetization 

 Broyden mixing:
  rms(total) = 0.22235E-04    rms(broyden)= 0.22234E-04
  rms(prec ) = 0.26422E-04
  weight for this iteration     100.00

 eigenvalues of (default mixing * dielectric matrix)
  average eigenvalue GAMMA=   2.0902
  0.9959  0.9959  2.9974  2.7260  2.6077  2.2186

 Free energy of the ion-electron system (eV)
  ---------------------------------------------------
  alpha Z        PSCENC =       -12.20331811
  Ewald energy   TEWEN  =      -470.34591005
  -Hartree energ DENC   =        -0.97585436
  -exchange      EXHF   =         0.00000000
  -V(xc)+E(xc)   XCENC  =      -129.09086116
  PAW double counting   =       185.29379184       -7.98150860
  entropy T*S    EENTRO =        -0.01602780
  eigenvalues    EBANDS =        41.65036565
  atomic energy  EATOM  =       369.31542285
  ---------------------------------------------------
  free energy    TOTEN  =       -24.35389973 eV

  energy without entropy =      -24.33787193  energy(sigma->0) =      -24.34588583


--------------------------------------------------------------------------------------------------------




----------------------------------------- Iteration    1(  12)  ---------------------------------------


    POTLOK:  cpu time    0.02: real time    0.02
    SETDIJ:  cpu time    0.00: real time    0.00
    EDDIAG:  cpu time    0.15: real time    0.15
  RMM-DIIS:  cpu time    0.28: real time    0.28
    ORTHCH:  cpu time    0.01: real time    0.01
       DOS:  cpu time    0.00: real time    0.00
    --------------------------------------------
      LOOP:  cpu time    0.47: real time    0.48

 eigenvalue-minimisations  :  1954
 total energy-change (2. order) :-0.5296623E-06  (-0.2047399E-07)
 number of electron      32.0000000 magnetization 
 augmentation part        0.1025536 magnetization 

 Free energy of the ion-electron system (eV)
  ---------------------------------------------------
  alpha Z        PSCENC =       -12.20331811
  Ewald energy   TEWEN  =      -470.34591005
  -Hartree energ DENC   =        -0.97586989
  -exchange      EXHF   =         0.00000000
  -V(xc)+E(xc)   XCENC  =      -129.09083372
  PAW double counting   =       185.29438908       -7.98214153
  entropy T*S    EENTRO =        -0.01602783
  eigenvalues    EBANDS =        41.65038892
  atomic energy  EATOM  =       369.31542285
  ---------------------------------------------------
  free energy    TOTEN  =       -24.35390026 eV

  energy without entropy =      -24.33787244  energy(sigma->0) =      -24.34588635


--------------------------------------------------------------------------------------------------------




 average (electrostatic) potential at core
  the test charge radii are     1.0714
  (the norm of the test charge is              1.0000)
       1 -54.0252       2 -54.0252       3 -54.0252       4 -54.0252       5 -54.0252
       6 -54.0252       7 -54.0252       8 -54.0252       9 -54.0252      10 -54.0252
      11 -54.0252      12 -54.0252      13 -54.0252      14 -54.0252      15 -54.0252
      16 -54.0252



 E-fermi :   4.0851     XC(G=0):  -8.2457     alpha+bet : -8.9669


 k-point     1 :       0.0000    0.0000    0.0000
  band No.  band energies     occupation 
      1      -2.9228      2.00000
      2      -1.5100      2.00000
      3      -1.5099      2.00000
      4       1.8394      2.00000
      5       1.8594      2.00000
      6       1.9153      2.00000
      7       1.9153      2.00000
      8       1.9220      2.00000
      9       1.9220      2.00000
     10       2.3914      2.00000
     11       2.8643      2.00000
     12       2.8658      2.00000
     13       2.9436      2.00000
     14       2.9436      2.00000
     15       2.9481      2.00000
     16       2.9849      2.00000
     17       2.9849      2.00000
     18       3.4993      2.00000
     19       3.6138      2.00000
     20       3.6138      2.00000
     21       3.6182      2.00000
     22       3.6728      2.00000
     23       3.6728      2.00000
     24       6.6716      0.00000
     25       6.7666      0.00000
     26       6.7678      0.00000

 k-point     2 :       0.1250    0.0000    0.0000
  band No.  band energies     occupation 
      1      -2.8451      2.00000
      2      -1.4366      2.00000
      3      -1.4301      2.00000
      4       0.8102      2.00000
      5       1.3426      2.00000
      6       1.3953      2.00000
      7       2.1273      2.00000
      8       2.1694      2.00000
      9       2.4622      2.00000
     10       2.4963      2.00000
     11       2.5812      2.00000
     12       2.5957      2.00000
     13       2.6625      2.00000
     14       2.6821      2.00000
     15       2.7138      2.00000
     16       2.9398      2.00000
     17       3.1411      2.00000
     18       3.9115      1.99807
     19       4.0259      1.82823
     20       4.0361      1.75234
     21       4.0852      0.99635
     22       4.5640      0.00000
     23       4.6221      0.00000
     24       5.8642      0.00000
     25       6.3472      0.00000
     26       6.4136      0.00000

 k-point     3 :       0.2500    0.0000    0.0000
  band No.  band energies     occupation 
      1      -2.6123      2.00000
      2      -1.2105      2.00000
      3      -1.1976      2.00000
      4      -0.1649      2.00000
      5       0.9808      2.00000
      6       1.0161      2.00000
      7       1.1845      2.00000
      8       1.2218      2.00000
      9       2.2736      2.00000
     10       2.3196      2.00000
     11       2.3575      2.00000
     12       2.3794      2.00000
     13       2.6745      2.00000
     14       3.1649      2.00000
     15       3.2750      2.00000
     16       3.3738      2.00000
     17       4.3585      0.00004
     18       4.6568      0.00000
     19       4.7722      0.00000
     20       4.7995      0.00000
     21       4.8398      0.00000
     22       4.9450      0.00000
     23       5.8821      0.00000
     24       5.9066      0.00000
     25       5.9792      0.00000
     26       6.0306      0.00000

 k-point     4 :       0.3750    0.0000    0.0000
  band No.  band energies     occupation 
      1      -2.2256      2.00000
      2      -0.9989      2.00000
      3      -0.8328      2.00000
      4      -0.8135      2.00000
      5       0.3688      2.00000
      6       0.4003      2.00000
      7       0.7663      2.00000
      8       0.7840      2.00000
      9       2.0735      2.00000
     10       2.0968      2.00000
     11       2.1526      2.00000
     12       2.1636      2.00000
     13       3.0286      2.00000
     14       3.5336      2.00000
     15       4.1631      0.08450
     16       4.1674      0.07153
     17       4.2745      0.00102
     18       4.5736      0.00000
     19       5.5435      0.00000
     20       5.6587      0.00000
     21       5.6995      0.00000
     22       5.7302      0.00000
     23       5.8136      0.00000
     24       5.8356      0.00000
     25       6.0702      0.00000
     26       6.1238      0.00000

 k-point     5 :       0.5000    0.0000    0.0000
  band No.  band energies     occupation 
      1      -1.6869      2.00000
      2      -1.6869      2.00000
      3      -0.3053      2.00000
      4      -0.3053      2.00000
      5      -0.2798      2.00000
      6      -0.2798      2.00000
      7       0.7005      2.00000
      8       0.7005      2.00000
      9       2.0137      2.00000
     10       2.0137      2.00000
     11       2.0869      2.00000
     12       2.0869      2.00000
     13       3.5248      2.00000
     14       3.5248      2.00000
     15       4.0298      1.80241
     16       4.0298      1.80241
     17       5.0436      0.00000
     18       5.0436      0.00000
     19       5.3593      0.00000
     20       5.3593      0.00000
     21       5.7606      0.00000
     22       5.7606      0.00000
     23       6.3392      0.00000
     24       6.3393      0.00000
     25       6.3929      0.00000
     26       6.3933      0.00000

 k-point     6 :       0.0000    0.1250    0.0000
  band No.  band energies     occupation 
      1      -2.8462      2.00000
      2      -1.4410      2.00000
      3      -1.4280      2.00000
      4       0.7559      2.00000
      5       1.4116      2.00000
      6       1.4116      2.00000
      7       2.0542      2.00000
      8       2.1386      2.00000
      9       2.4609      2.00000
     10       2.5632      2.00000
     11       2.5633      2.00000
     12       2.6845      2.00000
     13       2.6845      2.00000
     14       2.7197      2.00000
     15       2.7197      2.00000
     16       2.9390      2.00000
     17       3.0572      2.00000
     18       4.0126      1.89548
     19       4.0126      1.89545
     20       4.0775      1.15008
     21       4.0775      1.14992
     22       4.4434      0.00000
     23       4.5598      0.00000
     24       5.8028      0.00000
     25       6.4285      0.00000
     26       6.4406      0.00000

 k-point     7 :       0.1250    0.1250    0.0000
  band No.  band energies     occupation 
      1      -2.6922      2.00000
      2      -1.2924      2.00000
      3      -1.2730      2.00000
      4       0.3148      2.00000
      5       0.3683      2.00000
      6       1.6318      2.00000
      7       1.7082      2.00000
      8       1.7117      2.00000
      9       1.7389      2.00000
     10       2.1186      2.00000
     11       2.1551      2.00000
     12       2.6011      2.00000
     13       3.0884      2.00000
     14       3.1498      2.00000
     15       3.1918      2.00000
     16       3.7381      2.00000
     17       3.8167      1.99996
     18       3.8345      1.99991
     19       3.8923      1.99910
     20       5.1391      0.00000
     21       5.2539      0.00000
     22       5.2593      0.00000
     23       5.3226      0.00000
     24       5.3892      0.00000
     25       5.4481      0.00000
     26       6.1894      0.00000

 k-point     8 :       0.2500    0.1250    0.0000
  band No.  band energies     occupation 
      1      -2.3836      2.00000
      2      -0.9916      2.00000
      3      -0.9658      2.00000
      4      -0.5374      2.00000
      5       0.0220      2.00000
      6       0.8255      2.00000
      7       0.8506      2.00000
      8       1.3497      2.00000
      9       1.4240      2.00000
     10       1.8178      2.00000
     11       2.8830      2.00000
     12       3.0306      2.00000
     13       3.0638      2.00000
     14       3.1302      2.00000
     15       3.3847      2.00000
     16       4.4796      0.00000
     17       4.4855      0.00000
     18       4.5121      0.00000
     19       4.5945      0.00000
     20       4.7313      0.00000
     21       5.1163      0.00000
     22       5.9331      0.00000
     23       5.9702      0.00000
     24       5.9731      0.00000
     25       6.0933      0.00000
     26       6.1666      0.00000

 k-point     9 :       0.3750    0.1250    0.0000
  band No.  band energies     occupation 
      1      -1.9220      2.00000
      2      -1.2995      2.00000
      3      -0.5401      2.00000
      4      -0.5081      2.00000
      5      -0.1208      2.00000
      6       0.0793      2.00000
      7       0.0983      2.00000
      8       1.2131      2.00000
      9       1.2815      2.00000
     10       1.6613      2.00000
     11       2.9359      2.00000
     12       3.0118      2.00000
     13       3.3069      2.00000
     14       3.8184      1.99995
     15       3.8845      1.99934
     16       4.0292      1.80672
     17       4.3635      0.00003
     18       4.9672      0.00000
     19       5.0195      0.00000
     20       5.0821      0.00000
     21       5.3685      0.00000
     22       5.3812      0.00000
     23       6.0975      0.00000
     24       6.6695      0.00000
     25       6.6748      0.00000
     26       6.8094      0.00000

 k-point    10 :       0.5000    0.1250    0.0000
  band No.  band energies     occupation 
      1      -1.9140      2.00000
      2      -1.3098      2.00000
      3      -0.5226      2.00000
      4      -0.5098      2.00000
      5      -0.1130      2.00000
      6       0.0597      2.00000
      7       0.0978      2.00000
      8       1.2239      2.00000
      9       1.2860      2.00000
     10       1.6515      2.00000
     11       2.9233      2.00000
     12       3.0053      2.00000
     13       3.3159      2.00000
     14       3.8240      1.99994
     15       3.8730      1.99959
     16       3.9236      1.99687
     17       4.3576      0.00004
     18       4.9795      0.00000
     19       5.1166      0.00000
     20       5.1291      0.00000
     21       5.2344      0.00000
     22       5.3351      0.00000
     23       6.1708      0.00000
     24       6.6590      0.00000
     25       6.8247      0.00000
     26       6.8527      0.00000

 k-point    11 :      -0.3750    0.1250    0.0000
  band No.  band energies     occupation 
      1      -2.3778      2.00000
      2      -0.9763      2.00000
      3      -0.9698      2.00000
      4      -0.5498      2.00000
      5       0.0455      2.00000
      6       0.8040      2.00000
      7       0.8478      2.00000
      8       1.3819      2.00000
      9       1.4376      2.00000
     10       1.7885      2.00000
     11       2.8895      2.00000
     12       2.9350      2.00000
     13       3.0258      2.00000
     14       3.1110      2.00000
     15       3.3889      2.00000
     16       4.3413      0.00007
     17       4.4534      0.00000
     18       4.5786      0.00000
     19       4.5800      0.00000
     20       4.7380      0.00000
     21       5.1421      0.00000
     22       5.9410      0.00000
     23       6.0218      0.00000
     24       6.1326      0.00000
     25       6.1764      0.00000
     26       6.2623      0.00000

 k-point    12 :      -0.2500    0.1250    0.0000
  band No.  band energies     occupation 
      1      -2.6887      2.00000
      2      -1.2793      2.00000
      3      -1.2793      2.00000
      4       0.3539      2.00000
      5       0.3539      2.00000
      6       1.6850      2.00000
      7       1.6850      2.00000
      8       1.7341      2.00000
      9       1.7341      2.00000
     10       2.0639      2.00000
     11       2.0783      2.00000
     12       2.6050      2.00000
     13       3.0767      2.00000
     14       3.0910      2.00000
     15       3.1585      2.00000
     16       3.7231      2.00000
     17       3.8349      1.99991
     18       3.8349      1.99991
     19       3.8413      1.99988
     20       5.2817      0.00000
     21       5.2817      0.00000
     22       5.3329      0.00000
     23       5.3329      0.00000
     24       5.4325      0.00000
     25       5.4325      0.00000
     26       6.2304      0.00000

 k-point    13 :       0.0000    0.2500    0.0000
  band No.  band energies     occupation 
      1      -2.6169      2.00000
      2      -1.2215      2.00000
      3      -1.1957      2.00000
      4      -0.2054      2.00000
      5       1.0469      2.00000
      6       1.0469      2.00000
      7       1.1264      2.00000
      8       1.2010      2.00000
      9       2.3664      2.00000
     10       2.3664      2.00000
     11       2.3906      2.00000
     12       2.3906      2.00000
     13       2.6693      2.00000
     14       3.1614      2.00000
     15       3.3369      2.00000
     16       3.3369      2.00000
     17       4.2744      0.00103
     18       4.7467      0.00000
     19       4.7467      0.00000
     20       4.8215      0.00000
     21       4.8215      0.00000
     22       4.9022      0.00000
     23       5.7666      0.00000
     24       5.8193      0.00000
     25       5.8935      0.00000
     26       6.0910      0.00000

 k-point    14 :       0.1250    0.2500    0.0000
  band No.  band energies     occupation 
      1      -2.3870      2.00000
      2      -0.9982      2.00000
      3      -0.9660      2.00000
      4      -0.5769      2.00000
      5       0.0724      2.00000
      6       0.7650      2.00000
      7       0.8339      2.00000
      8       1.4265      2.00000
      9       1.4451      2.00000
     10       1.8665      2.00000
     11       2.8792      2.00000
     12       2.9772      2.00000
     13       3.1280      2.00000
     14       3.1472      2.00000
     15       3.3822      2.00000
     16       4.4116      0.00000
     17       4.4903      0.00000
     18       4.5439      0.00000
     19       4.5503      0.00000
     20       4.6929      0.00000
     21       5.1697      0.00000
     22       5.8359      0.00000
     23       6.0310      0.00000
     24       6.0768      0.00000
     25       6.1557      0.00000
     26       6.1778      0.00000

 k-point    15 :       0.2500    0.2500    0.0000
  band No.  band energies     occupation 
      1      -2.0036      2.00000
      2      -0.7978      2.00000
      3      -0.7616      2.00000
      4      -0.6236      2.00000
      5      -0.5852      2.00000
      6       0.5510      2.00000
      7       0.6116      2.00000
      8       0.6139      2.00000
      9       0.6242      2.00000
     10       2.7517      2.00000
     11       2.8227      2.00000
     12       3.2310      2.00000
     13       3.7444      2.00000
     14       3.7590      2.00000
     15       3.8020      1.99998
     16       4.3449      0.00006
     17       4.3863      0.00001
     18       4.4553      0.00000
     19       4.5069      0.00000
     20       4.7493      0.00000
     21       4.7726      0.00000
     22       4.9771      0.00000
     23       6.4542      0.00000
     24       6.5535      0.00000
     25       6.5641      0.00000
     26       6.6715      0.00000

 k-point    16 :       0.3750    0.2500    0.0000
  band No.  band energies     occupation 
      1      -1.4684      2.00000
      2      -1.4502      2.00000
      3      -0.8671      2.00000
      4      -0.0997      2.00000
      5      -0.0627      2.00000
      6      -0.0563      2.00000
      7      -0.0552      2.00000
      8       0.4860      2.00000
      9       0.5427      2.00000
     10       2.6710      2.00000
     11       3.7248      2.00000
     12       3.7452      2.00000
     13       3.8018      1.99998
     14       3.8403      1.99989
     15       3.8999      1.99878
     16       3.9170      1.99759
     17       4.2311      0.00580
     18       4.2428      0.00363
     19       4.2820      0.00076
     20       4.7342      0.00000
     21       4.9230      0.00000
     22       4.9687      0.00000
     23       5.8171      0.00000
     24       5.8751      0.00000
     25       7.2606      0.00000
     26       7.6176      0.00000

 k-point    17 :       0.5000    0.2500    0.0000
  band No.  band energies     occupation 
      1      -1.9898      2.00000
      2      -0.7842      2.00000
      3      -0.7842      2.00000
      4      -0.5909      2.00000
      5      -0.5908      2.00000
      6       0.5706      2.00000
      7       0.5706      2.00000
      8       0.6209      2.00000
      9       0.6209      2.00000
     10       2.7296      2.00000
     11       2.7345      2.00000
     12       3.2463      2.00000
     13       3.7002      2.00000
     14       3.7542      2.00000
     15       3.7794      1.99999
     16       4.3585      0.00004
     17       4.3604      0.00003
     18       4.3604      0.00003
     19       4.4695      0.00000
     20       4.7653      0.00000
     21       4.7653      0.00000
     22       5.0795      0.00000
     23       6.5978      0.00000
     24       6.5978      0.00000
     25       6.7194      0.00000
     26       6.7240      0.00000

 k-point    18 :       0.0000    0.3750    0.0000
  band No.  band energies     occupation 
      1      -2.2360      2.00000
      2      -1.0273      2.00000
      3      -0.8526      2.00000
      4      -0.8140      2.00000
      5       0.3252      2.00000
      6       0.3883      2.00000
      7       0.8270      2.00000
      8       0.8270      2.00000
      9       2.1655      2.00000
     10       2.1655      2.00000
     11       2.1777      2.00000
     12       2.1777      2.00000
     13       3.0170      2.00000
     14       3.5260      2.00000
     15       4.1308      0.27608
     16       4.2202      0.00894
     17       4.2202      0.00894
     18       4.5500      0.00000
     19       5.6207      0.00000
     20       5.6208      0.00000
     21       5.7039      0.00000
     22       5.7039      0.00000
     23       5.8840      0.00000
[...]
     24       5.9560      0.00000
     25       6.1181      0.00000
     26       6.1323      0.00000

 k-point    69 :      -0.2500    0.1250    0.5000
  band No.  band energies     occupation 
      1      -2.3343      2.00000
      2      -2.3343      2.00000
      3       0.4522      2.00000
      4       0.4522      2.00000
      5       0.6834      2.00000
      6       0.6834      2.00000
      7       0.7085      2.00000
      8       0.7086      2.00000
      9       2.3724      2.00000
     10       2.3724      2.00000
     11       2.4210      2.00000
     12       2.4210      2.00000
     13       3.2684      2.00000
     14       3.2684      2.00000
     15       3.3313      2.00000
     16       3.3314      2.00000
     17       4.3767      0.00002
     18       4.3767      0.00002
     19       4.4126      0.00000
     20       4.4126      0.00000
     21       5.0608      0.00000
     22       5.0608      0.00000
     23       5.2110      0.00000
     24       5.2110      0.00000
     25       5.8521      0.00000
     26       5.8521      0.00000

 k-point    70 :       0.0000    0.2500    0.5000
  band No.  band energies     occupation 
      1      -2.2694      2.00000
      2      -2.2563      2.00000
      3       0.1204      2.00000
      4       0.1584      2.00000
      5       0.5026      2.00000
      6       0.5404      2.00000
      7       1.3788      2.00000
      8       1.3788      2.00000
      9       1.3913      2.00000
     10       1.3913      2.00000
     11       2.7690      2.00000
     12       2.8741      2.00000
     13       3.5042      2.00000
     14       3.5042      2.00000
     15       3.5344      2.00000
     16       3.5344      2.00000
     17       4.2848      0.00068
     18       4.2848      0.00068
     19       4.3299      0.00011
     20       4.3299      0.00011
     21       4.8207      0.00000
     22       4.8899      0.00000
     23       5.8864      0.00000
     24       5.9444      0.00000
     25       6.3061      0.00000
     26       6.3062      0.00000

 k-point    71 :       0.1250    0.2500    0.5000
  band No.  band energies     occupation 
      1      -2.0420      2.00000
      2      -2.0257      2.00000
      3      -0.2481      2.00000
      4      -0.2130      2.00000
      5       0.4112      2.00000
      6       0.4207      2.00000
      7       0.7199      2.00000
      8       0.7670      2.00000
      9       2.1934      2.00000
     10       2.2026      2.00000
     11       2.4294      2.00000
     12       2.5285      2.00000
     13       3.0714      2.00000
     14       3.0974      2.00000
     15       3.2580      2.00000
     16       3.2946      2.00000
     17       4.9211      0.00000
     18       4.9525      0.00000
     19       5.1328      0.00000
     20       5.1755      0.00000
     21       5.5594      0.00000
     22       5.6256      0.00000
     23       5.8677      0.00000
     24       5.9665      0.00000
     25       6.0812      0.00000
     26       6.1525      0.00000

 k-point    72 :       0.2500    0.2500    0.5000
  band No.  band energies     occupation 
      1      -1.6615      2.00000
      2      -1.6420      2.00000
      3      -0.4666      2.00000
      4      -0.4346      2.00000
      5      -0.4177      2.00000
      6      -0.4113      2.00000
      7       1.0853      2.00000
      8       1.1415      2.00000
      9       2.2255      2.00000
     10       2.2965      2.00000
     11       2.3146      2.00000
     12       2.3165      2.00000
     13       3.0504      2.00000
     14       3.0903      2.00000
     15       3.1376      2.00000
     16       3.1429      2.00000
     17       5.0666      0.00000
     18       5.1071      0.00000
     19       5.8096      0.00000
     20       5.8714      0.00000
     21       6.2922      0.00000
     22       6.3565      0.00000
     23       6.3983      0.00000
     24       6.4013      0.00000
     25       6.4520      0.00000
     26       6.4836      0.00000

 k-point    73 :       0.3750    0.2500    0.5000
  band No.  band energies     occupation 
      1      -1.1299      2.00000
      2      -1.1073      2.00000
      3      -1.1020      2.00000
      4      -1.0988      2.00000
      5      -0.5339      2.00000
      6      -0.5051      2.00000
      7       1.5963      2.00000
      8       1.6416      2.00000
      9       1.6508      2.00000
     10       1.6611      2.00000
     11       2.1644      2.00000
     12       2.2466      2.00000
     13       2.9717      2.00000
     14       3.0163      2.00000
     15       4.0515      1.58577
     16       4.0954      0.79602
     17       4.1830      0.03898
     18       4.1927      0.02660
     19       5.8216      0.00000
     20       5.9546      0.00000
     21       6.7986      0.00000
     22       6.8466      0.00000
     23       6.8553      0.00000
     24       6.8615      0.00000
     25       6.8810      0.00000
     26       6.9713      0.00000

 k-point    74 :       0.5000    0.2500    0.5000
  band No.  band energies     occupation 
      1      -1.6380      2.00000
      2      -1.6380      2.00000
      3      -0.4498      2.00000
      4      -0.4498      2.00000
      5      -0.4243      2.00000
      6      -0.4243      2.00000
      7       1.1266      2.00000
      8       1.1266      2.00000
      9       2.2477      2.00000
     10       2.2477      2.00000
     11       2.3205      2.00000
     12       2.3205      2.00000
     13       3.0272      2.00000
     14       3.0272      2.00000
     15       3.0749      2.00000
     16       3.0749      2.00000
     17       5.1333      0.00000
     18       5.1333      0.00000
     19       5.7941      0.00000
     20       5.7941      0.00000
     21       6.3211      0.00000
     22       6.3211      0.00000
     23       6.4544      0.00000
     24       6.4544      0.00000
     25       6.5443      0.00000
     26       6.5443      0.00000

 k-point    75 :       0.0000    0.3750    0.5000
  band No.  band energies     occupation 
      1      -1.8931      2.00000
      2      -1.8736      2.00000
      3      -0.6952      2.00000
      4      -0.6631      2.00000
      5       0.8610      2.00000
      6       0.9174      2.00000
      7       1.1637      2.00000
      8       1.1637      2.00000
      9       1.1700      2.00000
     10       1.1700      2.00000
     11       2.0053      2.00000
     12       2.0969      2.00000
     13       3.7229      2.00000
     14       3.7230      2.00000
     15       3.7399      2.00000
     16       3.7399      2.00000
     17       4.7644      0.00000
     18       4.7644      0.00000
     19       4.8102      0.00000
     20       4.8102      0.00000
     21       6.1872      0.00000
     22       6.2028      0.00000
     23       6.2410      0.00000
     24       6.2868      0.00000
     25       6.6991      0.00000
     26       6.6991      0.00000

 k-point    76 :       0.1250    0.3750    0.5000
  band No.  band energies     occupation 
      1      -1.5910      2.00000
      2      -1.5683      2.00000
      3      -0.9921      2.00000
      4      -0.9631      2.00000
      5       0.2667      2.00000
      6       0.2698      2.00000
      7       1.1504      2.00000
      8       1.2158      2.00000
      9       1.7230      2.00000
     10       1.8060      2.00000
     11       2.0544      2.00000
     12       2.0575      2.00000
     13       2.9502      2.00000
     14       2.9590      2.00000
     15       4.1068      0.59033
     16       4.1348      0.24071
     17       4.8151      0.00000
     18       4.8335      0.00000
     19       5.5989      0.00000
     20       5.6415      0.00000
     21       6.0646      0.00000
     22       6.1116      0.00000
     23       6.4478      0.00000
     24       6.5406      0.00000
     25       6.7080      0.00000
     26       6.7332      0.00000

 k-point    77 :       0.2500    0.3750    0.5000
  band No.  band energies     occupation 
      1      -1.1372      2.00000
      2      -1.1372      2.00000
      3      -1.1114      2.00000
      4      -1.1114      2.00000
      5      -0.4891      2.00000
      6      -0.4891      2.00000
      7       1.5862      2.00000
      8       1.5862      2.00000
      9       1.6603      2.00000
     10       1.6603      2.00000
     11       2.2346      2.00000
     12       2.2346      2.00000
     13       3.0724      2.00000
     14       3.0724      2.00000
     15       4.0488      1.61973
     16       4.0488      1.61969
     17       4.1462      0.15948
     18       4.1462      0.15947
     19       5.9545      0.00000
     20       5.9545      0.00000
     21       6.7829      0.00000
     22       6.7829      0.00000
     23       6.8715      0.00000
     24       6.8715      0.00000
     25       6.8831      0.00000
     26       6.8831      0.00000

 k-point    78 :       0.0000    0.5000    0.5000
  band No.  band energies     occupation 
      1      -1.3675      2.00000
      2      -1.3675      2.00000
      3      -1.3416      2.00000
      4      -1.3416      2.00000
      5       1.0939      2.00000
      6       1.0939      2.00000
      7       1.0939      2.00000
      8       1.0939      2.00000
      9       1.3635      2.00000
     10       1.3635      2.00000
     11       1.4379      2.00000
     12       1.4379      2.00000
     13       3.7087      2.00000
     14       3.7087      2.00000
     15       3.7087      2.00000
     16       3.7087      2.00000
     17       5.6576      0.00000
     18       5.6576      0.00000
     19       5.6576      0.00000
     20       5.6576      0.00000
     21       5.8442      0.00000
     22       5.8442      0.00000
     23       5.8442      0.00000
     24       5.8442      0.00000
     25       6.5924      0.00000
     26       6.5924      0.00000


--------------------------------------------------------------------------------------------------------


 soft charge-density along one line, spin component           1
         0         1         2         3         4         5         6         7         8         9
 total charge-density along one line

 pseudopotential strength for first ion, spin component:           1
  3.574  -0.020   0.000   0.000   0.000   0.000  -0.000   0.000
 -0.020  -0.008   0.000  -0.000   0.000  -0.000   0.000  -0.000
  0.000   0.000   0.714   0.000   0.000  -0.027  -0.000   0.000
  0.000  -0.000   0.000   0.714  -0.000  -0.000  -0.027   0.000
  0.000   0.000   0.000  -0.000   0.714   0.000   0.000  -0.027
  0.000  -0.000  -0.027  -0.000   0.000  -0.037   0.000  -0.000
 -0.000   0.000  -0.000  -0.027   0.000   0.000  -0.037   0.000
  0.000  -0.000   0.000   0.000  -0.027  -0.000   0.000  -0.037
 total augmentation occupancy for first ion, spin component:           1
  1.127  -0.043  -0.001   0.000   0.000   0.000  -0.000  -0.000
 -0.043   0.003   0.000  -0.000  -0.000  -0.000   0.000   0.000
 -0.001   0.000   0.752   0.003  -0.000   0.042   0.000  -0.000
  0.000  -0.000   0.003   0.746  -0.000   0.000   0.042  -0.000
  0.000  -0.000  -0.000  -0.000   0.757  -0.000  -0.000   0.042
  0.000  -0.000   0.042   0.000  -0.000   0.002   0.000  -0.000
 -0.000   0.000   0.000   0.042  -0.000   0.000   0.002  -0.000
 -0.000   0.000  -0.000  -0.000   0.042  -0.000  -0.000   0.002


------------------------ aborting loop because EDIFF is reached ----------------------------------------


    CHARGE:  cpu time    0.06: real time    0.06
    FORLOC:  cpu time    0.00: real time    0.00
    FORNL :  cpu time    0.24: real time    0.24
    STRESS:  cpu time    0.39: real time    0.39
    FORCOR:  cpu time    0.02: real time    0.02
    FORHAR:  cpu time    0.01: real time    0.01
    MIXING:  cpu time    0.00: real time    0.00
    OFIELD:  cpu time    0.00: real time    0.00

  FORCE on cell =-STRESS in cart. coord.  units (eV):
  Direction    XX          YY          ZZ          XY          YZ          ZX
  --------------------------------------------------------------------------------------
  Alpha Z   -12.20332   -12.20332   -12.20332
  Ewald    -157.06721  -158.11698  -155.16420     0.00009     0.42365     0.00000
  Hartree     0.28472     0.29733     0.39336    -0.00000    -0.01286     0.00000
  E(xc)     -73.72757   -73.68125   -73.69780     0.00001    -0.02230    -0.00000
  Local      14.06555    14.75296    12.59179    -0.00004    -0.24196    -0.00000
  n-local   128.06680   127.68515   128.02641    -0.27409     0.17738     0.01550
  augment     1.67164     1.67941     1.68751     0.00000    -0.00458     0.00000
  Kinetic   100.27139   100.32674    98.77985    -7.70424     0.09249    -0.22410
  Fock        0.00000     0.00000     0.00000     0.00000     0.00000     0.00000
  -------------------------------------------------------------------------------------
  Total       1.36198     0.74004     0.41360    -0.00000     0.41182    -0.00000
  in kB       6.02104     3.27155     1.82843    -0.00000     1.82058    -0.00000
  external pressure =        3.71 kB  Pullay stress =        0.00 kB


 VOLUME and BASIS-vectors are now :
 -----------------------------------------------------------------------------
  energy-cutoff  :      450.00
  volume of cell :      362.42
      direct lattice vectors                 reciprocal lattice vectors
     6.342884570 -0.000000026  0.000000000     0.157656976  0.090115345  0.000450577
    -3.171445888  5.548589649 -0.027742948     0.000000001  0.180230485  0.000901152
     0.000000000 -0.051489864 10.297972898     0.000000000  0.000485545  0.097108918

  length of vectors
     6.342884570  6.391062963 10.298101621     0.181594880  0.180232738  0.097110131


 FORCES acting on ions
    electron-ion (+dipol)            ewald-force                    non-local-force                 convergence-correction
 -----------------------------------------------------------------------------------------------
   -.209E-04 -.298E-01 0.749E-03   0.452E-05 0.123E-01 0.324E-03   -.114E-07 0.176E-01 -.114E-02   -.959E-08 0.353E-05 0.543E-04
   -.209E-04 -.298E-01 0.749E-03   0.452E-05 0.123E-01 0.324E-03   -.114E-07 0.176E-01 -.114E-02   -.959E-08 0.353E-05 0.543E-04
   -.209E-04 -.298E-01 0.749E-03   0.443E-05 0.123E-01 0.324E-03   -.114E-07 0.176E-01 -.114E-02   -.959E-08 0.354E-05 0.543E-04
   -.209E-04 -.298E-01 0.749E-03   0.443E-05 0.123E-01 0.324E-03   -.114E-07 0.176E-01 -.114E-02   -.959E-08 0.354E-05 0.543E-04
   -.197E-04 -.298E-01 0.749E-03   0.288E-05 0.123E-01 0.324E-03   -.114E-07 0.176E-01 -.114E-02   0.576E-08 0.354E-05 0.543E-04
   -.197E-04 -.298E-01 0.749E-03   0.288E-05 0.123E-01 0.324E-03   -.114E-07 0.176E-01 -.114E-02   0.576E-08 0.354E-05 0.543E-04
   -.197E-04 -.298E-01 0.749E-03   0.279E-05 0.122E-01 0.324E-03   -.114E-07 0.176E-01 -.114E-02   0.576E-08 0.355E-05 0.543E-04
   -.197E-04 -.298E-01 0.749E-03   0.279E-05 0.122E-01 0.324E-03   -.114E-07 0.176E-01 -.114E-02   0.576E-08 0.355E-05 0.543E-04
   0.203E-04 0.298E-01 -.749E-03   -.357E-05 -.122E-01 -.324E-03   0.114E-07 -.176E-01 0.114E-02   -.183E-08 -.355E-05 -.543E-04
   0.203E-04 0.298E-01 -.749E-03   -.357E-05 -.122E-01 -.324E-03   0.114E-07 -.176E-01 0.114E-02   -.183E-08 -.355E-05 -.543E-04
   0.197E-04 0.298E-01 -.749E-03   -.342E-05 -.123E-01 -.324E-03   0.114E-07 -.176E-01 0.114E-02   -.183E-08 -.353E-05 -.543E-04
   0.197E-04 0.298E-01 -.749E-03   -.342E-05 -.123E-01 -.324E-03   0.114E-07 -.176E-01 0.114E-02   -.183E-08 -.353E-05 -.543E-04
   0.203E-04 0.298E-01 -.749E-03   -.389E-05 -.122E-01 -.324E-03   0.114E-07 -.176E-01 0.114E-02   0.565E-08 -.354E-05 -.543E-04
   0.203E-04 0.298E-01 -.749E-03   -.389E-05 -.122E-01 -.324E-03   0.114E-07 -.176E-01 0.114E-02   0.565E-08 -.354E-05 -.543E-04
   0.197E-04 0.298E-01 -.749E-03   -.374E-05 -.123E-01 -.324E-03   0.114E-07 -.176E-01 0.114E-02   0.565E-08 -.353E-05 -.543E-04
   0.197E-04 0.298E-01 -.749E-03   -.374E-05 -.123E-01 -.324E-03   0.114E-07 -.176E-01 0.114E-02   0.565E-08 -.353E-05 -.543E-04
 -----------------------------------------------------------------------------------------------
   -.238E-05 -.411E-05 -.219E-08   -.170E-14 -.260E-16 0.888E-15   0.213E-16 -.694E-17 0.239E-17   -.201E-11 0.127E-11 0.209E-12


 POSITION                                       TOTAL-FORCE (eV/Angst)
 -----------------------------------------------------------------------------------
     -0.00000      1.84838      1.27798        -0.000000      0.000009     -0.000015
     -0.00000      1.82263      6.42697        -0.000000      0.000009     -0.000015
     -1.58573      4.62267      1.26411        -0.000000      0.000009     -0.000015
     -1.58573      4.59693      6.41309        -0.000000      0.000009     -0.000015
      3.17144      1.84838      1.27798        -0.000000      0.000009     -0.000015
      3.17144      1.82263      6.42697        -0.000000      0.000009     -0.000015
      1.58572      4.62267      1.26411        -0.000000      0.000009     -0.000015
      1.58572      4.59693      6.41309        -0.000000      0.000009     -0.000015
      1.58572      0.90017      3.85714         0.000000     -0.000009      0.000015
      1.58572      0.87443      9.00612         0.000000     -0.000009      0.000015
     -0.00000      3.67447      3.84326         0.000000     -0.000009      0.000015
     -0.00000      3.64872      8.99225         0.000000     -0.000009      0.000015
      4.75716      0.90017      3.85714         0.000000     -0.000009      0.000015
      4.75716      0.87443      9.00612         0.000000     -0.000009      0.000015
      3.17144      3.67447      3.84326         0.000000     -0.000009      0.000015
      3.17144      3.64872      8.99225         0.000000     -0.000009      0.000015
 -----------------------------------------------------------------------------------
    total drift:                               -0.000002     -0.000004     -0.000000


--------------------------------------------------------------------------------------------------------



  FREE ENERGIE OF THE ION-ELECTRON SYSTEM (eV)
  ---------------------------------------------------
  free  energy   TOTEN  =       -24.35423915 eV

  energy  without entropy=      -24.33824025  energy(sigma->0) =      -24.34623970

 d Force = 0.1389633E-06[ 0.151E-07, 0.263E-06]  d Energy = 0.3059674E-06-0.167E-06
 d Force = 0.3645423E-05[ 0.296E-05, 0.433E-05]  d Ewald  = 0.3645422E-05 0.470E-12


--------------------------------------------------------------------------------------------------------


    POTLOK:  cpu time    0.02: real time    0.03


--------------------------------------------------------------------------------------------------------




--------------------------------------------------------------------------------------------------------


  
 reached required accuracy - stopping structural energy minimisation
     LOOP+:  cpu time    2.91: real time    2.96
    4ORBIT:  cpu time    0.00: real time    0.00

 total amount of memory used by VASP on root node    46782. kBytes
========================================================================

   base      :      30000. kBytes
   nonl-proj :       3463. kBytes
   fftplans  :        978. kBytes
   grid      :       1368. kBytes
   one-center:          6. kBytes
   wavefun   :      10967. kBytes

  
  
 General timing and accounting informations for this job:
 ========================================================
  
                  Total CPU time used (sec):       33.346
                            User time (sec):       33.082
                          System time (sec):        0.264
                         Elapsed time (sec):       33.995
  
                   Maximum memory used (kb):       42808.
                   Average memory used (kb):           0.
  
                          Minor page faults:        11110
                          Major page faults:            0
                 Voluntary context switches:         3287
