Mg                                      
           1
     6.342885   -0.000000    0.000000
    -3.171446    5.548590   -0.027743
     0.000000   -0.051490   10.297973
   Mg
  16
Direct configuration=     1
   0.16666649  0.33333349  0.12500000
   0.16666649  0.33333349  0.62500000
   0.16666649  0.83333349  0.12500000
   0.16666649  0.83333349  0.62500000
   0.66666651  0.33333349  0.12500000
   0.66666651  0.33333349  0.62500000
   0.66666651  0.83333349  0.12500000
   0.66666651  0.83333349  0.62500000
   0.33333349  0.16666649  0.37500000
   0.33333349  0.16666649  0.87500000
   0.33333349  0.66666651  0.37500000
   0.33333349  0.66666651  0.87500000
   0.83333349  0.16666649  0.37500000
   0.83333349  0.16666649  0.87500000
   0.83333349  0.66666651  0.37500000
   0.83333349  0.66666651  0.87500000
Direct configuration=     2
   0.16668680  0.33337411  0.12500146
   0.16668680  0.33337411  0.62500146
   0.16668680  0.83337411  0.12500146
   0.16668680  0.83337411  0.62500146
   0.66668682  0.33337411  0.12500146
   0.66668682  0.33337411  0.62500146
   0.66668682  0.83337411  0.12500146
   0.66668682  0.83337411  0.62500146
   0.33331318  0.16662587  0.37499854
   0.33331318  0.16662587  0.87499854
   0.33331318  0.66662589  0.37499854
   0.33331318  0.66662589  0.87499854
   0.83331318  0.16662587  0.37499854
   0.83331318  0.16662587  0.87499854
   0.83331318  0.66662589  0.37499854
   0.83331318  0.66662589  0.87499854
Direct configuration=     3
   0.16674773  0.33349597  0.12500584
   0.16674773  0.33349597  0.62500584
   0.16674773  0.83349597  0.12500584
   0.16674773  0.83349597  0.62500584
   0.66674775  0.33349597  0.12500584
   0.66674775  0.33349597  0.62500584
   0.66674775  0.83349597  0.12500584
   0.66674775  0.83349597  0.62500584
   0.33325225  0.16650401  0.37499416
   0.33325225  0.16650401  0.87499416
   0.33325225  0.66650403  0.37499416
   0.33325225  0.66650403  0.87499416
   0.83325225  0.16650401  0.37499416
   0.83325225  0.16650401  0.87499416
   0.83325225  0.66650403  0.37499416
   0.83325225  0.66650403  0.87499416
Direct configuration=     4
   0.16686960  0.33373970  0.12501461
   0.16686960  0.33373970  0.62501461
   0.16686960  0.83373970  0.12501461
   0.16686960  0.83373970  0.62501461
   0.66686961  0.33373970  0.12501461
   0.66686961  0.33373970  0.62501461
   0.66686961  0.83373970  0.12501461
   0.66686961  0.83373970  0.62501461
   0.33313039  0.16626029  0.37498539
   0.33313039  0.16626029  0.87498539
   0.33313039  0.66626030  0.37498539
   0.33313039  0.66626030  0.87498539
   0.83313039  0.16626029  0.37498539
   0.83313039  0.16626029  0.87498539
   0.83313039  0.66626030  0.37498539
   0.83313039  0.66626030  0.87498539
Direct configuration=     5
   0.16711332  0.33422715  0.12503215
   0.16711332  0.33422715  0.62503215
   0.16711332  0.83422715  0.12503215
   0.16711332  0.83422715  0.62503215
   0.66711334  0.33422715  0.12503215
   0.66711334  0.33422715  0.62503215
   0.66711334  0.83422715  0.12503215
   0.66711334  0.83422715  0.62503215
   0.33288666  0.16577284  0.37496785
   0.33288666  0.16577284  0.87496785
   0.33288666  0.66577285  0.37496785
   0.33288666  0.66577285  0.87496785
   0.83288666  0.16577284  0.37496785
   0.83288666  0.16577284  0.87496785
   0.83288666  0.66577285  0.37496785
   0.83288666  0.66577285  0.87496785
Direct configuration=     6
   0.16713342  0.33426735  0.12503359
   0.16713342  0.33426735  0.62503359
   0.16713342  0.83426735  0.12503359
   0.16713342  0.83426735  0.62503359
   0.66713344  0.33426735  0.12503359
   0.66713344  0.33426735  0.62503359
   0.66713344  0.83426735  0.12503359
   0.66713344  0.83426735  0.62503359
   0.33286656  0.16573263  0.37496641
   0.33286656  0.16573263  0.87496641
   0.33286656  0.66573265  0.37496641
   0.33286656  0.66573265  0.87496641
   0.83286656  0.16573263  0.37496641
   0.83286656  0.16573263  0.87496641
   0.83286656  0.66573265  0.37496641
   0.83286656  0.66573265  0.87496641
Direct configuration=     7
   0.16714115  0.33428280  0.12500588
   0.16714115  0.33428280  0.62500588
   0.16714115  0.83428280  0.12500588
   0.16714115  0.83428280  0.62500588
   0.66714116  0.33428280  0.12500588
   0.66714116  0.33428280  0.62500588
   0.66714116  0.83428280  0.12500588
   0.66714116  0.83428280  0.62500588
   0.33285884  0.16571718  0.37499412
   0.33285884  0.16571718  0.87499412
   0.33285884  0.66571720  0.37499412
   0.33285884  0.66571720  0.87499412
   0.83285884  0.16571718  0.37499412
   0.83285884  0.16571718  0.87499412
   0.83285884  0.66571720  0.37499412
   0.83285884  0.66571720  0.87499412
Direct configuration=     8
   0.16714261  0.33428574  0.12500061
   0.16714261  0.33428574  0.62500061
   0.16714261  0.83428574  0.12500061
   0.16714261  0.83428574  0.62500061
   0.66714263  0.33428574  0.12500061
   0.66714263  0.33428574  0.62500061
   0.66714263  0.83428574  0.12500061
   0.66714263  0.83428574  0.62500061
   0.33285737  0.16571425  0.37499939
   0.33285737  0.16571425  0.87499939
   0.33285737  0.66571426  0.37499939
   0.33285737  0.66571426  0.87499939
   0.83285737  0.16571425  0.37499939
   0.83285737  0.16571425  0.87499939
   0.83285737  0.66571426  0.37499939
   0.83285737  0.66571426  0.87499939
