       N       E                     dE             d eps       ncg     rms          rms(c)
DAV:   1     0.929907325942E+03    0.92991E+03   -0.54053E+04 30576   0.175E+03
DAV:   2     0.123099998663E+01   -0.92868E+03   -0.89843E+03 30576   0.400E+02
DAV:   3    -0.923136962769E+02   -0.93545E+02   -0.88899E+02 31956   0.148E+02
DAV:   4    -0.958664562756E+02   -0.35528E+01   -0.34903E+01 35948   0.283E+01
DAV:   5    -0.959587938767E+02   -0.92338E-01   -0.92090E-01 37000   0.394E+00    0.342E+01
RMM:   6    -0.103720102474E+03   -0.77613E+01   -0.42870E+02 30626   0.123E+02    0.252E+01
RMM:   7    -0.790488274220E+02    0.24671E+02   -0.92199E+01 30576   0.617E+01    0.281E+00
RMM:   8    -0.791065313463E+02   -0.57704E-01   -0.92992E+00 30576   0.158E+01    0.461E+00
RMM:   9    -0.786772672747E+02    0.42926E+00   -0.98710E-01 30577   0.629E+00    0.563E-01
RMM:  10    -0.786714692342E+02    0.57980E-02   -0.31280E-02 30579   0.750E-01    0.318E-01
RMM:  11    -0.786689289082E+02    0.25403E-02   -0.18500E-02 30576   0.580E-01    0.728E-02
RMM:  12    -0.786688903361E+02    0.38572E-04   -0.49703E-04 30579   0.915E-02    0.483E-02
RMM:  13    -0.786688707663E+02    0.19570E-04   -0.17983E-04 30576   0.719E-02    0.234E-02
RMM:  14    -0.786688567006E+02    0.14066E-04   -0.29866E-05 19337   0.339E-02    0.557E-03
RMM:  15    -0.786688568353E+02   -0.13462E-06   -0.50664E-06 17207   0.120E-02
   1 F= -.78668857E+02 E0= -.78663972E+02  d E =-.786689E+02
