 vasp.5.3.5 31Mar14 (build Nov 12 2015 11:19:23) complex                         
 executed on           CrayXC_GCC date 2016.06.29  19:02:33
 running on   96 total cores
 distrk:  each k-point on   48 cores,    2 groups
 distr:  one band on NCORES_PER_BAND=  24 cores,    2 groups


--------------------------------------------------------------------------------------------------------


 INCAR:
 POTCAR:   PAW_GGA Al 05Jan2001                   
 POTCAR:   PAW_GGA Cu 05Jan2001                   

 ----------------------------------------------------------------------------- 
|                                                                             |
|           W    W    AA    RRRRR   N    N  II  N    N   GGGG   !!!           |
|           W    W   A  A   R    R  NN   N  II  NN   N  G    G  !!!           |
|           W    W  A    A  R    R  N N  N  II  N N  N  G       !!!           |
|           W WW W  AAAAAA  RRRRR   N  N N  II  N  N N  G  GGG   !            |
|           WW  WW  A    A  R   R   N   NN  II  N   NN  G    G                |
|           W    W  A    A  R    R  N    N  II  N    N   GGGG   !!!           |
|                                                                             |
|      For optimal performance we recommend to set                            |
|        NCORE= 4 - approx SQRT( number of cores)                             |
|      NCORE specifies how many cores store one orbital (NPAR=cpu/NCORE).     |
|      This setting can  greatly improve the performance of VASP for DFT.     |
|      The default, NPAR=number of cores might be grossly inefficient         |
|      on modern multi-core architectures or massively parallel machines.     |
|      Do your own testing !!!!                                               |
|      Unfortunately you need to use the default for GW and RPA calculations. |
|      (for HF NCORE is supported but not extensively tested yet)             |
|                                                                             |
 ----------------------------------------------------------------------------- 


 ----------------------------------------------------------------------------- 
|                                                                             |
|           W    W    AA    RRRRR   N    N  II  N    N   GGGG   !!!           |
|           W    W   A  A   R    R  NN   N  II  NN   N  G    G  !!!           |
|           W    W  A    A  R    R  N N  N  II  N N  N  G       !!!           |
|           W WW W  AAAAAA  RRRRR   N  N N  II  N  N N  G  GGG   !            |
|           WW  WW  A    A  R   R   N   NN  II  N   NN  G    G                |
|           W    W  A    A  R    R  N    N  II  N    N   GGGG   !!!           |
|                                                                             |
|      You have enabled k-point parallelism (KPAR>1).                         |
|      This developmental code was originally  written by Paul Kent at ORNL,  |
|      and carefully double checked in Vienna.                                |
|      GW as well as linear response parallelism added by Martijn Marsman     |
|      and Georg Kresse.                                                      |
|      Carefully verify results versus KPAR=1.                                |
|      Report problems to Paul Kent and Vienna.                               |
|                                                                             |
 ----------------------------------------------------------------------------- 

 POTCAR:   PAW_GGA Al 05Jan2001                   
   VRHFIN =Al: s2p1                                                             
   LEXCH  = 91                                                                  
   EATOM  =    53.6910 eV,    3.9462 Ry                                         
                                                                                
   TITEL  = PAW_GGA Al 05Jan2001                                                
   LULTRA =        F    use ultrasoft PP ?                                      
   IUNSCR =        1    unscreen: 0-lin 1-nonlin 2-no                           
   RPACOR =    1.500    partial core radius                                     
   POMASS =   26.982; ZVAL   =    3.000    mass and valenz                      
   RCORE  =    1.900    outmost cutoff radius                                   
   RWIGS  =    2.650; RWIGS  =    1.402    wigner-seitz radius (au A)           
   ENMAX  =  240.437; ENMIN  =  180.327 eV                                      
   ICORE  =        2    local potential                                         
   LCOR   =        T    correct aug charges                                     
   LPAW   =        T    paw PP                                                  
   EAUG   =  291.052                                                            
   DEXC   =    -.017                                                            
   RMAX   =    2.974    core radius for proj-oper                               
   RAUG   =    1.300    factor for augmentation sphere                          
   RDEP   =    1.966    core radius for depl-charge                             
   QCUT   =   -4.204; QGAM   =    8.408    optimization parameters              
                                                                                
   Description                                                                  
     l     E      TYP  RCUT    TYP  RCUT                                        
     0   .000     23  1.900                                                     
     0   .000     23  1.900                                                     
     1   .000     23  1.900                                                     
     1  1.000     23  1.900                                                     
     2   .000      7  1.900                                                     
  local pseudopotential read in
  partial core-charges read in
  atomic valenz-charges read in
  non local Contribution for L=           0  read in
    real space projection operators read in
  non local Contribution for L=           0  read in
    real space projection operators read in
  non local Contribution for L=           1  read in
    real space projection operators read in
  non local Contribution for L=           1  read in
    real space projection operators read in
    PAW grid and wavefunctions read in

   number of l-projection  operators is LMAX  =           4
   number of lm-projection operators is LMMAX =           8

 POTCAR:   PAW_GGA Cu 05Jan2001                   
   VRHFIN =Cu: d10 p1                                                           
   LEXCH  = 91                                                                  
   EATOM  =  1393.0707 eV,  102.3878 Ry                                         
                                                                                
   TITEL  = PAW_GGA Cu 05Jan2001                                                
   LULTRA =        F    use ultrasoft PP ?                                      
   IUNSCR =        1    unscreen: 0-lin 1-nonlin 2-no                           
   RPACOR =    2.000    partial core radius                                     
   POMASS =   63.546; ZVAL   =   11.000    mass and valenz                      
   RCORE  =    2.300    outmost cutoff radius                                   
   RWIGS  =    2.480; RWIGS  =    1.312    wigner-seitz radius (au A)           
   ENMAX  =  273.246; ENMIN  =  204.934 eV                                      
   RCLOC  =    1.712    cutoff for local pot                                    
   LCOR   =        T    correct aug charges                                     
   LPAW   =        T    paw PP                                                  
   EAUG   =  516.456                                                            
   DEXC   =    -.002                                                            
   RMAX   =    2.789    core radius for proj-oper                               
   RAUG   =    1.300    factor for augmentation sphere                          
   RDEP   =    2.302    core radius for depl-charge                             
   QCUT   =   -4.481; QGAM   =    8.963    optimization parameters              
                                                                                
   Description                                                                  
     l     E      TYP  RCUT    TYP  RCUT                                        
     2   .000     23  2.300                                                     
     2   .000     23  2.300                                                     
     0   .000     23  2.300                                                     
     0   .000     23  2.300                                                     
     1  -.200     23  2.300                                                     
     1   .000     23  2.300                                                     
     3   .000      7   .000                                                     
  local pseudopotential read in
  partial core-charges read in
  atomic valenz-charges read in
  non local Contribution for L=           2  read in
    real space projection operators read in
  non local Contribution for L=           2  read in
    real space projection operators read in
  non local Contribution for L=           0  read in
    real space projection operators read in
  non local Contribution for L=           0  read in
    real space projection operators read in
  non local Contribution for L=           1  read in
    real space projection operators read in
  non local Contribution for L=           1  read in
    real space projection operators read in
    PAW grid and wavefunctions read in

   number of l-projection  operators is LMAX  =           6
   number of lm-projection operators is LMMAX =          18


 ----------------------------------------------------------------------------- 
|                                                                             |
|  ADVICE TO THIS USER RUNNING 'VASP/VAMP'   (HEAR YOUR MASTER'S VOICE ...):  |
|                                                                             |
|      You have a (more or less) 'large supercell' and for larger cells       |
|      it might be more efficient to use real space projection operators      |
|      So try LREAL= Auto  in the INCAR   file.                               |
|      Mind: If you want to do a very accurate calculations keep the          |
|      reciprocal projection scheme          (i.e. LREAL=.FALSE.)             |
|                                                                             |
 ----------------------------------------------------------------------------- 

 PAW_GGA Al 05Jan2001                   :
 energy of atom  1       EATOM=  -53.6910
 kinetic energy error for atom=    0.0005 (will be added to EATOM!!)
 PAW_GGA Cu 05Jan2001                   :
 energy of atom  2       EATOM=-1393.0707
 kinetic energy error for atom=    0.0043 (will be added to EATOM!!)


 POSCAR: AlCu                                    
  positions in direct lattice
  No initial velocities read in
 exchange correlation table for  LEXCH =        7
   RHO(1)=    0.500       N(1)  =     2000
   RHO(2)=  100.500       N(2)  =     4000



--------------------------------------------------------------------------------------------------------


 ion  position               nearest neighbor table
   1  0.500  0.000  0.500-  13 2.41  12 2.41  19 2.58  19 2.58  20 2.58  20 2.58   8 2.90   8 2.90
                             7 2.90   7 2.90  10 2.92   9 2.92
   2  0.156  0.000  0.461-  12 2.45  14 2.52  11 2.62  15 2.64  18 2.66  18 2.66   8 2.88   8 2.88
                             6 2.90   6 2.90   9 3.09
   3  0.844  0.000  0.539-  13 2.45  15 2.52  11 2.62  14 2.64  17 2.66  17 2.66   7 2.88   7 2.88
                             6 2.90   6 2.90  10 3.09
   4  0.878  0.500  0.995-  11 2.52  11 2.52  13 2.56  13 2.56  15 2.56  15 2.56  19 2.70  17 2.81
                             6 2.92   5 2.92   7 3.09
   5  0.122  0.500  0.005-  11 2.52  11 2.52  12 2.56  12 2.56  14 2.56  14 2.56  20 2.70  18 2.81
                             6 2.92   4 2.92   8 3.09
   6  0.000  0.500  0.500-  17 2.41  18 2.41  14 2.58  14 2.58  15 2.58  15 2.58   2 2.90   2 2.90
                             3 2.90   3 2.90   5 2.92   4 2.92
   7  0.656  0.500  0.461-  17 2.45  19 2.52  16 2.62  20 2.64  13 2.66  13 2.66   3 2.88   3 2.88
                             1 2.90   1 2.90   4 3.09
   8  0.344  0.500  0.539-  18 2.45  20 2.52  16 2.62  19 2.64  12 2.66  12 2.66   2 2.88   2 2.88
                             1 2.90   1 2.90   5 3.09
   9  0.378  0.000  0.995-  16 2.52  16 2.52  18 2.56  18 2.56  20 2.56  20 2.56  14 2.70  12 2.81
                             1 2.92  10 2.92   2 3.09
  10  0.622  0.000  0.005-  16 2.52  16 2.52  17 2.56  17 2.56  19 2.56  19 2.56  15 2.70  13 2.81
                             1 2.92   9 2.92   3 3.09
  11  0.000  0.000  0.000-   4 2.52   4 2.52   5 2.52   5 2.52  12 2.57  13 2.57  15 2.57  14 2.57
                             2 2.62   3 2.62
  12  0.258  0.000  0.242-   1 2.41   2 2.45   5 2.56   5 2.56  11 2.57  20 2.65  20 2.65   8 2.66
                             8 2.66  14 2.67   9 2.81
  13  0.742  0.000  0.758-   1 2.41   3 2.45   4 2.56   4 2.56  11 2.57  19 2.65  19 2.65   7 2.66
                             7 2.66  15 2.67  10 2.81
  14  0.109  0.000  0.772-   2 2.52   5 2.56   5 2.56  11 2.57   6 2.58   6 2.58   3 2.64  18 2.65
                            18 2.65  12 2.67   9 2.70  15 3.13
  15  0.891  0.000  0.228-   3 2.52   4 2.56   4 2.56  11 2.57   6 2.58   6 2.58   2 2.64  17 2.65
                            17 2.65  13 2.67  10 2.70  14 3.13
  16  0.500  0.500  0.000-   9 2.52   9 2.52  10 2.52  10 2.52  18 2.57  17 2.57  20 2.57  19 2.57
                             7 2.62   8 2.62
  17  0.758  0.500  0.242-   6 2.41   7 2.45  10 2.56  10 2.56  16 2.57  15 2.65  15 2.65   3 2.66
                             3 2.66  19 2.67   4 2.81
  18  0.242  0.500  0.758-   6 2.41   8 2.45   9 2.56   9 2.56  16 2.57  14 2.65  14 2.65   2 2.66
                             2 2.66  20 2.67   5 2.81
  19  0.609  0.500  0.772-   7 2.52  10 2.56  10 2.56  16 2.57   1 2.58   1 2.58   8 2.64  13 2.65
                            13 2.65  17 2.67   4 2.70  20 3.13
  20  0.391  0.500  0.228-   8 2.52   9 2.56   9 2.56  16 2.57   1 2.58   1 2.58   7 2.64  12 2.65
                            12 2.65  18 2.67   5 2.70  19 3.13

  LATTYP: Found a simple monoclinic cell.
 ALAT       =    12.1191529246
 B/A-ratio  =     0.3386979175
 C/A-ratio  =     1.4080438681
 COS(beta)  =    -0.9428119634
  
  Lattice vectors:
  
 A1 = (  -4.1723505362,   0.0000000000, -11.3782845198)
 A2 = (   0.0000000000,  -4.1047318575,   0.0000000000)
 A3 = (   0.1986391240,   0.0000000000,  17.0631427815)


Analysis of symmetry for initial positions (statically):
=====================================================================
 Subroutine PRICEL returns following result:
 
  LATTYP: Found a base centered monoclinic cell.
 ALAT       =    12.1191529246
 B/A-ratio  =     0.3386979175
 C/A-ratio  =     0.8200640945
 COS(beta)  =    -0.7766923250
  
  Lattice vectors:
  
 A1 = (  -2.0861752681,  -2.0523659288,  -5.6891422599)
 A2 = (  -2.0861752681,   2.0523659288,  -5.6891422599)
 A3 = (   8.1460619485,   0.0000000000,   5.6934262581)
 
   2 primitive cells build up your supercell.
 

 Routine SETGRP: Setting up the symmetry group for a 
 simple monoclinic supercell.


 Subroutine GETGRP returns: Found  4 space group operations
 (whereof  4 operations were pure point group operations)
 out of a pool of  4 trial point group operations.


The static configuration has the point symmetry C_2h.


Analysis of symmetry for dynamics (positions and initial velocities):
=====================================================================
 Subroutine PRICEL returns following result:
 
  LATTYP: Found a base centered monoclinic cell.
 ALAT       =    12.1191529246
 B/A-ratio  =     0.3386979175
 C/A-ratio  =     0.8200640945
 COS(beta)  =    -0.7766923250
  
  Lattice vectors:
  
 A1 = (  -2.0861752681,  -2.0523659288,  -5.6891422599)
 A2 = (  -2.0861752681,   2.0523659288,  -5.6891422599)
 A3 = (   8.1460619485,   0.0000000000,   5.6934262581)
 
   2 primitive cells build up your supercell.
 

 Routine SETGRP: Setting up the symmetry group for a 
 simple monoclinic supercell.


 Subroutine GETGRP returns: Found  4 space group operations
 (whereof  4 operations were pure point group operations)
 out of a pool of  4 trial point group operations.


The dynamic configuration has the point symmetry C_2h.


 KPOINTS: Automatic                               

Automatic generation of k-mesh.
Space group operators:
 irot       det(A)        alpha          n_x          n_y          n_z        tau_x        tau_y        tau_z
    1     1.000000     0.000000     1.000000     0.000000     0.000000     0.000000    -0.000000    -0.000000
    2    -1.000000     0.000000     1.000000     0.000000     0.000000     0.000000    -0.000000    -0.000000
    3     1.000000   180.000000     0.000000     1.000000     0.000000     0.000000    -0.000000    -0.000000
    4    -1.000000   180.000000     0.000000     1.000000     0.000000     0.000000    -0.000000    -0.000000
 
 Subroutine IBZKPT returns following result:
 ===========================================
 
 Found    182 irreducible k-points:
 
 Following reciprocal coordinates:
            Coordinates               Weight
  0.000000  0.000000  0.000000      1.000000
  0.250000  0.000000  0.000000      2.000000
  0.500000  0.000000  0.000000      1.000000
  0.000000  0.083333  0.000000      2.000000
  0.250000  0.083333  0.000000      4.000000
  0.500000  0.083333  0.000000      2.000000
  0.000000  0.166667  0.000000      2.000000
  0.250000  0.166667  0.000000      4.000000
  0.500000  0.166667  0.000000      2.000000
  0.000000  0.250000  0.000000      2.000000
  0.250000  0.250000  0.000000      4.000000
  0.500000  0.250000  0.000000      2.000000
  0.000000  0.333333  0.000000      2.000000
  0.250000  0.333333  0.000000      4.000000
  0.500000  0.333333  0.000000      2.000000
  0.000000  0.416667  0.000000      2.000000
  0.250000  0.416667  0.000000      4.000000
  0.500000  0.416667  0.000000      2.000000
  0.000000  0.500000  0.000000      1.000000
  0.250000  0.500000  0.000000      2.000000
  0.500000  0.500000  0.000000      1.000000
  0.000000  0.000000  0.083333      2.000000
  0.250000  0.000000  0.083333      2.000000
  0.500000  0.000000  0.083333      2.000000
 -0.250000  0.000000  0.083333      2.000000
  0.000000  0.083333  0.083333      4.000000
  0.250000  0.083333  0.083333      4.000000
  0.500000  0.083333  0.083333      4.000000
 -0.250000  0.083333  0.083333      4.000000
  0.000000  0.166667  0.083333      4.000000
  0.250000  0.166667  0.083333      4.000000
  0.500000  0.166667  0.083333      4.000000
 -0.250000  0.166667  0.083333      4.000000
  0.000000  0.250000  0.083333      4.000000
  0.250000  0.250000  0.083333      4.000000
  0.500000  0.250000  0.083333      4.000000
 -0.250000  0.250000  0.083333      4.000000
  0.000000  0.333333  0.083333      4.000000
  0.250000  0.333333  0.083333      4.000000
  0.500000  0.333333  0.083333      4.000000
 -0.250000  0.333333  0.083333      4.000000
  0.000000  0.416667  0.083333      4.000000
  0.250000  0.416667  0.083333      4.000000
  0.500000  0.416667  0.083333      4.000000
 -0.250000  0.416667  0.083333      4.000000
  0.000000  0.500000  0.083333      2.000000
  0.250000  0.500000  0.083333      2.000000
  0.500000  0.500000  0.083333      2.000000
 -0.250000  0.500000  0.083333      2.000000
  0.000000  0.000000  0.166667      2.000000
  0.250000  0.000000  0.166667      2.000000
  0.500000  0.000000  0.166667      2.000000
 -0.250000  0.000000  0.166667      2.000000
  0.000000  0.083333  0.166667      4.000000
  0.250000  0.083333  0.166667      4.000000
  0.500000  0.083333  0.166667      4.000000
 -0.250000  0.083333  0.166667      4.000000
  0.000000  0.166667  0.166667      4.000000
  0.250000  0.166667  0.166667      4.000000
  0.500000  0.166667  0.166667      4.000000
 -0.250000  0.166667  0.166667      4.000000
  0.000000  0.250000  0.166667      4.000000
  0.250000  0.250000  0.166667      4.000000
  0.500000  0.250000  0.166667      4.000000
 -0.250000  0.250000  0.166667      4.000000
  0.000000  0.333333  0.166667      4.000000
  0.250000  0.333333  0.166667      4.000000
  0.500000  0.333333  0.166667      4.000000
 -0.250000  0.333333  0.166667      4.000000
  0.000000  0.416667  0.166667      4.000000
  0.250000  0.416667  0.166667      4.000000
  0.500000  0.416667  0.166667      4.000000
 -0.250000  0.416667  0.166667      4.000000
  0.000000  0.500000  0.166667      2.000000
  0.250000  0.500000  0.166667      2.000000
  0.500000  0.500000  0.166667      2.000000
 -0.250000  0.500000  0.166667      2.000000
  0.000000  0.000000  0.250000      2.000000
  0.250000  0.000000  0.250000      2.000000
  0.500000  0.000000  0.250000      2.000000
 -0.250000  0.000000  0.250000      2.000000
  0.000000  0.083333  0.250000      4.000000
  0.250000  0.083333  0.250000      4.000000
  0.500000  0.083333  0.250000      4.000000
 -0.250000  0.083333  0.250000      4.000000
  0.000000  0.166667  0.250000      4.000000
  0.250000  0.166667  0.250000      4.000000
  0.500000  0.166667  0.250000      4.000000
 -0.250000  0.166667  0.250000      4.000000
  0.000000  0.250000  0.250000      4.000000
  0.250000  0.250000  0.250000      4.000000
  0.500000  0.250000  0.250000      4.000000
 -0.250000  0.250000  0.250000      4.000000
  0.000000  0.333333  0.250000      4.000000
  0.250000  0.333333  0.250000      4.000000
  0.500000  0.333333  0.250000      4.000000
 -0.250000  0.333333  0.250000      4.000000
  0.000000  0.416667  0.250000      4.000000
  0.250000  0.416667  0.250000      4.000000
  0.500000  0.416667  0.250000      4.000000
 -0.250000  0.416667  0.250000      4.000000
  0.000000  0.500000  0.250000      2.000000
  0.250000  0.500000  0.250000      2.000000
  0.500000  0.500000  0.250000      2.000000
 -0.250000  0.500000  0.250000      2.000000
  0.000000  0.000000  0.333333      2.000000
  0.250000  0.000000  0.333333      2.000000
  0.500000  0.000000  0.333333      2.000000
 -0.250000  0.000000  0.333333      2.000000
  0.000000  0.083333  0.333333      4.000000
  0.250000  0.083333  0.333333      4.000000
  0.500000  0.083333  0.333333      4.000000
 -0.250000  0.083333  0.333333      4.000000
  0.000000  0.166667  0.333333      4.000000
  0.250000  0.166667  0.333333      4.000000
  0.500000  0.166667  0.333333      4.000000
 -0.250000  0.166667  0.333333      4.000000
  0.000000  0.250000  0.333333      4.000000
  0.250000  0.250000  0.333333      4.000000
  0.500000  0.250000  0.333333      4.000000
 -0.250000  0.250000  0.333333      4.000000
  0.000000  0.333333  0.333333      4.000000
  0.250000  0.333333  0.333333      4.000000
  0.500000  0.333333  0.333333      4.000000
 -0.250000  0.333333  0.333333      4.000000
  0.000000  0.416667  0.333333      4.000000
  0.250000  0.416667  0.333333      4.000000
  0.500000  0.416667  0.333333      4.000000
 -0.250000  0.416667  0.333333      4.000000
  0.000000  0.500000  0.333333      2.000000
  0.250000  0.500000  0.333333      2.000000
  0.500000  0.500000  0.333333      2.000000
 -0.250000  0.500000  0.333333      2.000000
  0.000000  0.000000  0.416667      2.000000
  0.250000  0.000000  0.416667      2.000000
  0.500000  0.000000  0.416667      2.000000
 -0.250000  0.000000  0.416667      2.000000
  0.000000  0.083333  0.416667      4.000000
  0.250000  0.083333  0.416667      4.000000
  0.500000  0.083333  0.416667      4.000000
 -0.250000  0.083333  0.416667      4.000000
  0.000000  0.166667  0.416667      4.000000
  0.250000  0.166667  0.416667      4.000000
  0.500000  0.166667  0.416667      4.000000
 -0.250000  0.166667  0.416667      4.000000
  0.000000  0.250000  0.416667      4.000000
  0.250000  0.250000  0.416667      4.000000
  0.500000  0.250000  0.416667      4.000000
 -0.250000  0.250000  0.416667      4.000000
  0.000000  0.333333  0.416667      4.000000
  0.250000  0.333333  0.416667      4.000000
  0.500000  0.333333  0.416667      4.000000
 -0.250000  0.333333  0.416667      4.000000
  0.000000  0.416667  0.416667      4.000000
  0.250000  0.416667  0.416667      4.000000
  0.500000  0.416667  0.416667      4.000000
 -0.250000  0.416667  0.416667      4.000000
  0.000000  0.500000  0.416667      2.000000
  0.250000  0.500000  0.416667      2.000000
  0.500000  0.500000  0.416667      2.000000
 -0.250000  0.500000  0.416667      2.000000
  0.000000  0.000000  0.500000      1.000000
  0.250000  0.000000  0.500000      2.000000
  0.500000  0.000000  0.500000      1.000000
  0.000000  0.083333  0.500000      2.000000
  0.250000  0.083333  0.500000      4.000000
  0.500000  0.083333  0.500000      2.000000
  0.000000  0.166667  0.500000      2.000000
  0.250000  0.166667  0.500000      4.000000
  0.500000  0.166667  0.500000      2.000000
  0.000000  0.250000  0.500000      2.000000
  0.250000  0.250000  0.500000      4.000000
  0.500000  0.250000  0.500000      2.000000
  0.000000  0.333333  0.500000      2.000000
  0.250000  0.333333  0.500000      4.000000
  0.500000  0.333333  0.500000      2.000000
  0.000000  0.416667  0.500000      2.000000
  0.250000  0.416667  0.500000      4.000000
  0.500000  0.416667  0.500000      2.000000
  0.000000  0.500000  0.500000      1.000000
  0.250000  0.500000  0.500000      2.000000
  0.500000  0.500000  0.500000      1.000000
 
 Following cartesian coordinates:
            Coordinates               Weight
  0.000000  0.000000  0.000000      1.000000
  0.020617  0.000000  0.014411      2.000000
  0.041235  0.000000  0.028823      1.000000
  0.000000  0.020302  0.000000      2.000000
  0.020617  0.020302  0.014411      4.000000
  0.041235  0.020302  0.028823      2.000000
  0.000000  0.040604  0.000000      2.000000
  0.020617  0.040604  0.014411      4.000000
  0.041235  0.040604  0.028823      2.000000
  0.000000  0.060905  0.000000      2.000000
  0.020617  0.060905  0.014411      4.000000
  0.041235  0.060905  0.028823      2.000000
  0.000000  0.081207  0.000000      2.000000
  0.020617  0.081207  0.014411      4.000000
  0.041235  0.081207  0.028823      2.000000
  0.000000  0.101509  0.000000      2.000000
  0.020617  0.101509  0.014411      4.000000
  0.041235  0.101509  0.028823      2.000000
  0.000000  0.121811  0.000000      1.000000
  0.020617  0.121811  0.014411      2.000000
  0.041235  0.121811  0.028823      1.000000
 -0.000010  0.000000  0.014652      2.000000
  0.020607  0.000000  0.029063      2.000000
  0.041224  0.000000  0.043474      2.000000
 -0.020628  0.000000  0.000240      2.000000
 -0.000010  0.020302  0.014652      4.000000
  0.020607  0.020302  0.029063      4.000000
  0.041224  0.020302  0.043474      4.000000
 -0.020628  0.020302  0.000240      4.000000
 -0.000010  0.040604  0.014652      4.000000
  0.020607  0.040604  0.029063      4.000000
  0.041224  0.040604  0.043474      4.000000
 -0.020628  0.040604  0.000240      4.000000
 -0.000010  0.060905  0.014652      4.000000
  0.020607  0.060905  0.029063      4.000000
  0.041224  0.060905  0.043474      4.000000
 -0.020628  0.060905  0.000240      4.000000
 -0.000010  0.081207  0.014652      4.000000
  0.020607  0.081207  0.029063      4.000000
  0.041224  0.081207  0.043474      4.000000
 -0.020628  0.081207  0.000240      4.000000
 -0.000010  0.101509  0.014652      4.000000
  0.020607  0.101509  0.029063      4.000000
  0.041224  0.101509  0.043474      4.000000
 -0.020628  0.101509  0.000240      4.000000
 -0.000010  0.121811  0.014652      2.000000
  0.020607  0.121811  0.029063      2.000000
  0.041224  0.121811  0.043474      2.000000
 -0.020628  0.121811  0.000240      2.000000
 -0.000021  0.000000  0.029303      2.000000
  0.020597  0.000000  0.043715      2.000000
  0.041214  0.000000  0.058126      2.000000
 -0.020638  0.000000  0.014892      2.000000
 -0.000021  0.020302  0.029303      4.000000
  0.020597  0.020302  0.043715      4.000000
  0.041214  0.020302  0.058126      4.000000
 -0.020638  0.020302  0.014892      4.000000
 -0.000021  0.040604  0.029303      4.000000
  0.020597  0.040604  0.043715      4.000000
  0.041214  0.040604  0.058126      4.000000
 -0.020638  0.040604  0.014892      4.000000
 -0.000021  0.060905  0.029303      4.000000
  0.020597  0.060905  0.043715      4.000000
  0.041214  0.060905  0.058126      4.000000
 -0.020638  0.060905  0.014892      4.000000
 -0.000021  0.081207  0.029303      4.000000
  0.020597  0.081207  0.043715      4.000000
  0.041214  0.081207  0.058126      4.000000
 -0.020638  0.081207  0.014892      4.000000
 -0.000021  0.101509  0.029303      4.000000
  0.020597  0.101509  0.043715      4.000000
  0.041214  0.101509  0.058126      4.000000
 -0.020638  0.101509  0.014892      4.000000
 -0.000021  0.121811  0.029303      2.000000
  0.020597  0.121811  0.043715      2.000000
  0.041214  0.121811  0.058126      2.000000
 -0.020638  0.121811  0.014892      2.000000
 -0.000031  0.000000  0.043955      2.000000
  0.020586  0.000000  0.058366      2.000000
  0.041203  0.000000  0.072778      2.000000
 -0.020648  0.000000  0.029543      2.000000
 -0.000031  0.020302  0.043955      4.000000
  0.020586  0.020302  0.058366      4.000000
  0.041203  0.020302  0.072778      4.000000
 -0.020648  0.020302  0.029543      4.000000
 -0.000031  0.040604  0.043955      4.000000
  0.020586  0.040604  0.058366      4.000000
  0.041203  0.040604  0.072778      4.000000
 -0.020648  0.040604  0.029543      4.000000
 -0.000031  0.060905  0.043955      4.000000
  0.020586  0.060905  0.058366      4.000000
  0.041203  0.060905  0.072778      4.000000
 -0.020648  0.060905  0.029543      4.000000
 -0.000031  0.081207  0.043955      4.000000
  0.020586  0.081207  0.058366      4.000000
  0.041203  0.081207  0.072778      4.000000
 -0.020648  0.081207  0.029543      4.000000
 -0.000031  0.101509  0.043955      4.000000
  0.020586  0.101509  0.058366      4.000000
  0.041203  0.101509  0.072778      4.000000
 -0.020648  0.101509  0.029543      4.000000
 -0.000031  0.121811  0.043955      2.000000
  0.020586  0.121811  0.058366      2.000000
  0.041203  0.121811  0.072778      2.000000
 -0.020648  0.121811  0.029543      2.000000
 -0.000041  0.000000  0.058606      2.000000
  0.020576  0.000000  0.073018      2.000000
  0.041193  0.000000  0.087429      2.000000
 -0.020659  0.000000  0.044195      2.000000
 -0.000041  0.020302  0.058606      4.000000
  0.020576  0.020302  0.073018      4.000000
  0.041193  0.020302  0.087429      4.000000
 -0.020659  0.020302  0.044195      4.000000
 -0.000041  0.040604  0.058606      4.000000
  0.020576  0.040604  0.073018      4.000000
  0.041193  0.040604  0.087429      4.000000
 -0.020659  0.040604  0.044195      4.000000
 -0.000041  0.060905  0.058606      4.000000
  0.020576  0.060905  0.073018      4.000000
  0.041193  0.060905  0.087429      4.000000
 -0.020659  0.060905  0.044195      4.000000
 -0.000041  0.081207  0.058606      4.000000
  0.020576  0.081207  0.073018      4.000000
  0.041193  0.081207  0.087429      4.000000
 -0.020659  0.081207  0.044195      4.000000
 -0.000041  0.101509  0.058606      4.000000
  0.020576  0.101509  0.073018      4.000000
  0.041193  0.101509  0.087429      4.000000
 -0.020659  0.101509  0.044195      4.000000
 -0.000041  0.121811  0.058606      2.000000
  0.020576  0.121811  0.073018      2.000000
  0.041193  0.121811  0.087429      2.000000
 -0.020659  0.121811  0.044195      2.000000
 -0.000052  0.000000  0.073258      2.000000
  0.020565  0.000000  0.087669      2.000000
  0.041183  0.000000  0.102081      2.000000
 -0.020669  0.000000  0.058846      2.000000
 -0.000052  0.020302  0.073258      4.000000
  0.020565  0.020302  0.087669      4.000000
  0.041183  0.020302  0.102081      4.000000
 -0.020669  0.020302  0.058846      4.000000
 -0.000052  0.040604  0.073258      4.000000
  0.020565  0.040604  0.087669      4.000000
  0.041183  0.040604  0.102081      4.000000
 -0.020669  0.040604  0.058846      4.000000
 -0.000052  0.060905  0.073258      4.000000
  0.020565  0.060905  0.087669      4.000000
  0.041183  0.060905  0.102081      4.000000
 -0.020669  0.060905  0.058846      4.000000
 -0.000052  0.081207  0.073258      4.000000
  0.020565  0.081207  0.087669      4.000000
  0.041183  0.081207  0.102081      4.000000
 -0.020669  0.081207  0.058846      4.000000
 -0.000052  0.101509  0.073258      4.000000
  0.020565  0.101509  0.087669      4.000000
  0.041183  0.101509  0.102081      4.000000
 -0.020669  0.101509  0.058846      4.000000
 -0.000052  0.121811  0.073258      2.000000
  0.020565  0.121811  0.087669      2.000000
  0.041183  0.121811  0.102081      2.000000
 -0.020669  0.121811  0.058846      2.000000
 -0.000062  0.000000  0.087909      1.000000
  0.020555  0.000000  0.102321      2.000000
  0.041172  0.000000  0.116732      1.000000
 -0.000062  0.020302  0.087909      2.000000
  0.020555  0.020302  0.102321      4.000000
  0.041172  0.020302  0.116732      2.000000
 -0.000062  0.040604  0.087909      2.000000
  0.020555  0.040604  0.102321      4.000000
  0.041172  0.040604  0.116732      2.000000
 -0.000062  0.060905  0.087909      2.000000
  0.020555  0.060905  0.102321      4.000000
  0.041172  0.060905  0.116732      2.000000
 -0.000062  0.081207  0.087909      2.000000
  0.020555  0.081207  0.102321      4.000000
  0.041172  0.081207  0.116732      2.000000
 -0.000062  0.101509  0.087909      2.000000
  0.020555  0.101509  0.102321      4.000000
  0.041172  0.101509  0.116732      2.000000
 -0.000062  0.121811  0.087909      1.000000
  0.020555  0.121811  0.102321      2.000000
  0.041172  0.121811  0.116732      1.000000
 


--------------------------------------------------------------------------------------------------------




 Dimension of arrays:
   k-points           NKPTS =    182   k-points in BZ     NKDIM =    182   number of bands    NBANDS=     84
   number of dos      NEDOS =    301   number of ions     NIONS =     20
   non local maximal  LDIM  =      6   non local SUM 2l+1 LMDIM =     18
   total plane-waves  NPLWV =  55296
   max r-space proj   IRMAX =      1   max aug-charges    IRDMAX=   7804
   dimension x,y,z NGX =    64 NGY =   24 NGZ =   36
   dimension x,y,z NGXF=   128 NGYF=   48 NGZF=   72
   support grid    NGXF=   128 NGYF=   48 NGZF=   72
   ions per type =              10  10
 NGX,Y,Z   is equivalent  to a cutoff of   8.78,  9.72,  8.63 a.u.
 NGXF,Y,Z  is equivalent  to a cutoff of  17.56, 19.44, 17.26 a.u.


 I would recommend the setting:
   dimension x,y,z NGX =    63 NGY =   21 NGZ =   36
 SYSTEM =  AlCu                                    
 POSCAR =  AlCu                                    

 Startparameter for this run:
   NWRITE =      2    write-flag & timer
   PREC   = n         normal or accurate (medium, high low for compatibility)
   ISTART =      0    job   : 0-new  1-cont  2-samecut
   ICHARG =      2    charge: 1-file 2-atom 10-const
   ISPIN  =      1    spin polarized calculation?
   LNONCOLLINEAR =      F non collinear calculations
   LSORBIT =      F    spin-orbit coupling
   INIWAV =      1    electr: 0-lowe 1-rand  2-diag
   LASPH  =      F    aspherical Exc in radial PAW
   METAGGA=      F    non-selfconsistent MetaGGA calc.

 Electronic Relaxation 1
   ENCUT  =  450.0 eV  33.07 Ry    5.75 a.u.  20.96  7.10 12.00*2*pi/ulx,y,z
   ENINI  =  450.0     initial cutoff
   ENAUG  =  516.5 eV  augmentation charge cutoff
   NELM   =     40;   NELMIN=  4; NELMDL= -5     # of ELM steps 
   EDIFF  = 0.1E-04   stopping-criterion for ELM
   LREAL  =      F    real-space projection
   NLSPLINE    = F    spline interpolate recip. space projectors
   LCOMPAT=      F    compatible to vasp.4.4
   GGA_COMPAT  = T    GGA compatible to vasp.4.4-vasp.4.6
   LMAXPAW     = -100 max onsite density
   LMAXMIX     =    2 max onsite mixed and CHGCAR
   VOSKOWN=      0    Vosko Wilk Nusair interpolation
   ROPT   =    0.00000   0.00000
 Ionic relaxation
   EDIFFG = -.1E-02   stopping-criterion for IOM
   NSW    =    100    number of steps for IOM
   NBLOCK =      1;   KBLOCK =    100    inner block; outer block 
   IBRION =      2    ionic relax: 0-MD 1-quasi-New 2-CG
   NFREE  =      1    steps in history (QN), initial steepest desc. (CG)
   ISIF   =      2    stress and relaxation
   IWAVPR =     11    prediction:  0-non 1-charg 2-wave 3-comb
   ISYM   =      2    0-nonsym 1-usesym 2-fastsym
   LCORR  =      T    Harris-Foulkes like correction to forces

   POTIM  = 0.3000    time-step for ionic-motion
   TEIN   =    0.0    initial temperature
   TEBEG  =    0.0;   TEEND  =   0.0 temperature during run
   SMASS  =  -3.00    Nose mass-parameter (am)
   estimated Nose-frequenzy (Omega)   =  0.10E-29 period in steps =****** mass=  -0.336E-26a.u.
   SCALEE = 1.0000    scale energy and forces
   NPACO  =    256;   APACO  = 16.0  distance and # of slots for P.C.
   PSTRESS=    0.0 pullay stress

  Mass of Ions in am
   POMASS =  26.98 63.55
  Ionic Valenz
   ZVAL   =   3.00 11.00
  Atomic Wigner-Seitz radii
   RWIGS  =  -1.00 -1.00
  virtual crystal weights 
   VCA    =   1.00  1.00
   NELECT =     140.0000    total number of electrons
   NUPDOWN=      -1.0000    fix difference up-down

 DOS related values:
   EMIN   =  10.00;   EMAX   =-10.00  energy-range for DOS
   EFERMI =   0.00
   ISMEAR =    -1;   SIGMA  =   0.03  broadening in eV -4-tet -1-fermi 0-gaus

 Electronic relaxation 2 (details)
   IALGO  =     68    algorithm
   LDIAG  =      T    sub-space diagonalisation (order eigenvalues)
   LSUBROT=      F    optimize rotation matrix (better conditioning)
   TURBO    =      0    0=normal 1=particle mesh
   IRESTART =      0    0=no restart 2=restart with 2 vectors
   NREBOOT  =      0    no. of reboots
   NMIN     =      0    reboot dimension
   EREF     =   0.00    reference energy to select bands
   IMIX   =      4    mixing-type and parameters
     AMIX     =   0.40;   BMIX     =  1.00
     AMIX_MAG =   1.60;   BMIX_MAG =  1.00
     AMIN     =   0.10
     WC   =   100.;   INIMIX=   1;  MIXPRE=   1;  MAXMIX=  40

 Intra band minimization:
   WEIMIN = 0.0010     energy-eigenvalue tresh-hold
   EBREAK =  0.30E-07  absolut break condition
   DEPER  =   0.30     relativ break condition  

   TIME   =   0.40     timestep for ELM

  volume/ion in A,a.u.               =      14.15        95.47
  Fermi-wavevector in a.u.,A,eV,Ry     =   1.294831  2.446875 22.811348  1.676587
  Thomas-Fermi vector in A             =   2.426389

 Write flags
   LWAVE  =      F    write WAVECAR
   LCHARG =      F    write CHGCAR
   LVTOT  =      F    write LOCPOT, total local potential
   LVHAR  =      F    write LOCPOT, Hartree potential only
   LELF   =      F    write electronic localiz. function (ELF)
   LORBIT =      0    0 simple, 1 ext, 2 COOP (PROOUT)


 Dipole corrections
   LMONO  =      F    monopole corrections only (constant potential shift)
   LDIPOL =      F    correct potential (dipole corrections)
   IDIPOL =      0    1-x, 2-y, 3-z, 4-all directions 
   EPSILON=  1.0000000 bulk dielectric constant

 Exchange correlation treatment:
   GGA     =    91    GGA type
   LEXCH   =     7    internal setting for exchange type
   VOSKOWN=      0    Vosko Wilk Nusair interpolation
   LHFCALC =     F    Hartree Fock is set to
   LHFONE  =     F    Hartree Fock one center treatment
   AEXX    =    0.0000 exact exchange contribution

 Linear response parameters
   LEPSILON=     F    determine dielectric tensor
   LRPA    =     F    only Hartree local field effects (RPA)
   LNABLA  =     F    use nabla operator in PAW spheres
   LVEL    =     F    velocity operator in full k-point grid
   LINTERFAST=   F  fast interpolation
   KINTER  =     0    interpolate to denser k-point grid
   CSHIFT  =0.1000    complex shift for real part using Kramers Kronig
   OMEGAMAX=  -1.0    maximum frequency
   DEG_THRESHOLD= 0.2000000E-02 threshold for treating states as degnerate
   RTIME   =    0.100 relaxation time in fs

 Orbital magnetization related:
   ORBITALMAG=     F  switch on orbital magnetization
   LCHIMAG   =     F  perturbation theory with respect to B field
   DQ        =  0.001000  dq finite difference perturbation B field



--------------------------------------------------------------------------------------------------------


 conjugate gradient relaxation of ions
 charge density and potential will be updated during run
 non-spin polarized calculation
 RMM-DIIS sequential band-by-band and
  variant of blocked Davidson during initial phase
 perform sub-space diagonalisation
    before iterative eigenvector-optimisation
 modified Broyden-mixing scheme, WC =      100.0
 initial mixing is a Kerker type mixing with AMIX =  0.4000 and BMIX =      1.0000
 Hartree-type preconditioning will be used
 using additional bands           14
 reciprocal scheme for non local part
 use partial core corrections
 calculate Harris-corrections to forces   (improved forces if not selfconsistent)
 use gradient corrections 
 use of overlap-Matrix (Vanderbilt PP)
 Fermi-smearing in eV        SIGMA  =   0.03


--------------------------------------------------------------------------------------------------------


  energy-cutoff  :      450.00
  volume of cell :      282.95
      direct lattice vectors                 reciprocal lattice vectors
    12.119773361  0.000000000  0.008567996     0.082469041 -0.000000000  0.057645794
     0.000000000  4.104731858  0.000000000     0.000000000  0.243621273 -0.000000000
    -3.973711412  0.000000000  5.684858262    -0.000124294  0.000000000  0.175818999

  length of vectors
    12.119776389  4.104731858  6.935992780     0.100618986  0.243621273  0.175819043



 k-points in units of 2pi/SCALE and weight: Automatic                               
   0.00000000  0.00000000  0.00000000       0.002
   0.02061726  0.00000000  0.01441145       0.003
   0.04123452  0.00000000  0.02882290       0.002
   0.00000000  0.02030177  0.00000000       0.003
   0.02061726  0.02030177  0.01441145       0.007
   0.04123452  0.02030177  0.02882290       0.003
   0.00000000  0.04060355  0.00000000       0.003
   0.02061726  0.04060355  0.01441145       0.007
   0.04123452  0.04060355  0.02882290       0.003
   0.00000000  0.06090532  0.00000000       0.003
   0.02061726  0.06090532  0.01441145       0.007
   0.04123452  0.06090532  0.02882290       0.003
   0.00000000  0.08120709  0.00000000       0.003
   0.02061726  0.08120709  0.01441145       0.007
   0.04123452  0.08120709  0.02882290       0.003
   0.00000000  0.10150886  0.00000000       0.003
   0.02061726  0.10150886  0.01441145       0.007
   0.04123452  0.10150886  0.02882290       0.003
   0.00000000  0.12181064  0.00000000       0.002
   0.02061726  0.12181064  0.01441145       0.003
   0.04123452  0.12181064  0.02882290       0.002
  -0.00001036  0.00000000  0.01465158       0.003
   0.02060690  0.00000000  0.02906303       0.003
   0.04122416  0.00000000  0.04347448       0.003
  -0.02062762  0.00000000  0.00024013       0.003
  -0.00001036  0.02030177  0.01465158       0.007
   0.02060690  0.02030177  0.02906303       0.007
   0.04122416  0.02030177  0.04347448       0.007
  -0.02062762  0.02030177  0.00024013       0.007
  -0.00001036  0.04060355  0.01465158       0.007
   0.02060690  0.04060355  0.02906303       0.007
   0.04122416  0.04060355  0.04347448       0.007
  -0.02062762  0.04060355  0.00024013       0.007
  -0.00001036  0.06090532  0.01465158       0.007
   0.02060690  0.06090532  0.02906303       0.007
   0.04122416  0.06090532  0.04347448       0.007
  -0.02062762  0.06090532  0.00024013       0.007
  -0.00001036  0.08120709  0.01465158       0.007
   0.02060690  0.08120709  0.02906303       0.007
   0.04122416  0.08120709  0.04347448       0.007
  -0.02062762  0.08120709  0.00024013       0.007
  -0.00001036  0.10150886  0.01465158       0.007
   0.02060690  0.10150886  0.02906303       0.007
   0.04122416  0.10150886  0.04347448       0.007
  -0.02062762  0.10150886  0.00024013       0.007
  -0.00001036  0.12181064  0.01465158       0.003
   0.02060690  0.12181064  0.02906303       0.003
   0.04122416  0.12181064  0.04347448       0.003
  -0.02062762  0.12181064  0.00024013       0.003
  -0.00002072  0.00000000  0.02930317       0.003
   0.02059654  0.00000000  0.04371462       0.003
   0.04121381  0.00000000  0.05812606       0.003
  -0.02063798  0.00000000  0.01489172       0.003
  -0.00002072  0.02030177  0.02930317       0.007
   0.02059654  0.02030177  0.04371462       0.007
   0.04121381  0.02030177  0.05812606       0.007
  -0.02063798  0.02030177  0.01489172       0.007
  -0.00002072  0.04060355  0.02930317       0.007
   0.02059654  0.04060355  0.04371462       0.007
   0.04121381  0.04060355  0.05812606       0.007
  -0.02063798  0.04060355  0.01489172       0.007
  -0.00002072  0.06090532  0.02930317       0.007
   0.02059654  0.06090532  0.04371462       0.007
   0.04121381  0.06090532  0.05812606       0.007
  -0.02063798  0.06090532  0.01489172       0.007
  -0.00002072  0.08120709  0.02930317       0.007
   0.02059654  0.08120709  0.04371462       0.007
   0.04121381  0.08120709  0.05812606       0.007
  -0.02063798  0.08120709  0.01489172       0.007
  -0.00002072  0.10150886  0.02930317       0.007
   0.02059654  0.10150886  0.04371462       0.007
   0.04121381  0.10150886  0.05812606       0.007
  -0.02063798  0.10150886  0.01489172       0.007
  -0.00002072  0.12181064  0.02930317       0.003
   0.02059654  0.12181064  0.04371462       0.003
   0.04121381  0.12181064  0.05812606       0.003
  -0.02063798  0.12181064  0.01489172       0.003
  -0.00003107  0.00000000  0.04395475       0.003
   0.02058619  0.00000000  0.05836620       0.003
   0.04120345  0.00000000  0.07277765       0.003
  -0.02064833  0.00000000  0.02954330       0.003
  -0.00003107  0.02030177  0.04395475       0.007
   0.02058619  0.02030177  0.05836620       0.007
   0.04120345  0.02030177  0.07277765       0.007
  -0.02064833  0.02030177  0.02954330       0.007
  -0.00003107  0.04060355  0.04395475       0.007
   0.02058619  0.04060355  0.05836620       0.007
   0.04120345  0.04060355  0.07277765       0.007
  -0.02064833  0.04060355  0.02954330       0.007
  -0.00003107  0.06090532  0.04395475       0.007
   0.02058619  0.06090532  0.05836620       0.007
   0.04120345  0.06090532  0.07277765       0.007
  -0.02064833  0.06090532  0.02954330       0.007
  -0.00003107  0.08120709  0.04395475       0.007
   0.02058619  0.08120709  0.05836620       0.007
   0.04120345  0.08120709  0.07277765       0.007
  -0.02064833  0.08120709  0.02954330       0.007
  -0.00003107  0.10150886  0.04395475       0.007
   0.02058619  0.10150886  0.05836620       0.007
   0.04120345  0.10150886  0.07277765       0.007
  -0.02064833  0.10150886  0.02954330       0.007
  -0.00003107  0.12181064  0.04395475       0.003
   0.02058619  0.12181064  0.05836620       0.003
   0.04120345  0.12181064  0.07277765       0.003
  -0.02064833  0.12181064  0.02954330       0.003
  -0.00004143  0.00000000  0.05860633       0.003
   0.02057583  0.00000000  0.07301778       0.003
   0.04119309  0.00000000  0.08742923       0.003
  -0.02065869  0.00000000  0.04419488       0.003
  -0.00004143  0.02030177  0.05860633       0.007
   0.02057583  0.02030177  0.07301778       0.007
   0.04119309  0.02030177  0.08742923       0.007
  -0.02065869  0.02030177  0.04419488       0.007
  -0.00004143  0.04060355  0.05860633       0.007
   0.02057583  0.04060355  0.07301778       0.007
   0.04119309  0.04060355  0.08742923       0.007
  -0.02065869  0.04060355  0.04419488       0.007
  -0.00004143  0.06090532  0.05860633       0.007
   0.02057583  0.06090532  0.07301778       0.007
   0.04119309  0.06090532  0.08742923       0.007
  -0.02065869  0.06090532  0.04419488       0.007
  -0.00004143  0.08120709  0.05860633       0.007
   0.02057583  0.08120709  0.07301778       0.007
   0.04119309  0.08120709  0.08742923       0.007
  -0.02065869  0.08120709  0.04419488       0.007
  -0.00004143  0.10150886  0.05860633       0.007
   0.02057583  0.10150886  0.07301778       0.007
   0.04119309  0.10150886  0.08742923       0.007
  -0.02065869  0.10150886  0.04419488       0.007
  -0.00004143  0.12181064  0.05860633       0.003
   0.02057583  0.12181064  0.07301778       0.003
   0.04119309  0.12181064  0.08742923       0.003
  -0.02065869  0.12181064  0.04419488       0.003
  -0.00005179  0.00000000  0.07325792       0.003
   0.02056547  0.00000000  0.08766937       0.003
   0.04118273  0.00000000  0.10208081       0.003
  -0.02066905  0.00000000  0.05884647       0.003
  -0.00005179  0.02030177  0.07325792       0.007
   0.02056547  0.02030177  0.08766937       0.007
   0.04118273  0.02030177  0.10208081       0.007
  -0.02066905  0.02030177  0.05884647       0.007
  -0.00005179  0.04060355  0.07325792       0.007
   0.02056547  0.04060355  0.08766937       0.007
   0.04118273  0.04060355  0.10208081       0.007
  -0.02066905  0.04060355  0.05884647       0.007
  -0.00005179  0.06090532  0.07325792       0.007
   0.02056547  0.06090532  0.08766937       0.007
   0.04118273  0.06090532  0.10208081       0.007
  -0.02066905  0.06090532  0.05884647       0.007
  -0.00005179  0.08120709  0.07325792       0.007
   0.02056547  0.08120709  0.08766937       0.007
   0.04118273  0.08120709  0.10208081       0.007
  -0.02066905  0.08120709  0.05884647       0.007
  -0.00005179  0.10150886  0.07325792       0.007
   0.02056547  0.10150886  0.08766937       0.007
   0.04118273  0.10150886  0.10208081       0.007
  -0.02066905  0.10150886  0.05884647       0.007
  -0.00005179  0.12181064  0.07325792       0.003
   0.02056547  0.12181064  0.08766937       0.003
   0.04118273  0.12181064  0.10208081       0.003
  -0.02066905  0.12181064  0.05884647       0.003
  -0.00006215  0.00000000  0.08790950       0.002
   0.02055511  0.00000000  0.10232095       0.003
   0.04117237  0.00000000  0.11673240       0.002
  -0.00006215  0.02030177  0.08790950       0.003
   0.02055511  0.02030177  0.10232095       0.007
   0.04117237  0.02030177  0.11673240       0.003
  -0.00006215  0.04060355  0.08790950       0.003
   0.02055511  0.04060355  0.10232095       0.007
   0.04117237  0.04060355  0.11673240       0.003
  -0.00006215  0.06090532  0.08790950       0.003
   0.02055511  0.06090532  0.10232095       0.007
   0.04117237  0.06090532  0.11673240       0.003
  -0.00006215  0.08120709  0.08790950       0.003
   0.02055511  0.08120709  0.10232095       0.007
   0.04117237  0.08120709  0.11673240       0.003
  -0.00006215  0.10150886  0.08790950       0.003
   0.02055511  0.10150886  0.10232095       0.007
   0.04117237  0.10150886  0.11673240       0.003
  -0.00006215  0.12181064  0.08790950       0.002
   0.02055511  0.12181064  0.10232095       0.003
   0.04117237  0.12181064  0.11673240       0.002

 k-points in reciprocal lattice and weights: Automatic                               
   0.00000000  0.00000000  0.00000000       0.002
   0.25000000  0.00000000  0.00000000       0.003
   0.50000000  0.00000000  0.00000000       0.002
   0.00000000  0.08333333  0.00000000       0.003
   0.25000000  0.08333333  0.00000000       0.007
   0.50000000  0.08333333  0.00000000       0.003
   0.00000000  0.16666667  0.00000000       0.003
   0.25000000  0.16666667  0.00000000       0.007
   0.50000000  0.16666667  0.00000000       0.003
   0.00000000  0.25000000  0.00000000       0.003
   0.25000000  0.25000000  0.00000000       0.007
   0.50000000  0.25000000  0.00000000       0.003
   0.00000000  0.33333333  0.00000000       0.003
   0.25000000  0.33333333  0.00000000       0.007
   0.50000000  0.33333333  0.00000000       0.003
   0.00000000  0.41666667  0.00000000       0.003
   0.25000000  0.41666667  0.00000000       0.007
   0.50000000  0.41666667  0.00000000       0.003
   0.00000000  0.50000000  0.00000000       0.002
   0.25000000  0.50000000  0.00000000       0.003
   0.50000000  0.50000000  0.00000000       0.002
   0.00000000  0.00000000  0.08333333       0.003
   0.25000000  0.00000000  0.08333333       0.003
   0.50000000  0.00000000  0.08333333       0.003
  -0.25000000  0.00000000  0.08333333       0.003
   0.00000000  0.08333333  0.08333333       0.007
   0.25000000  0.08333333  0.08333333       0.007
   0.50000000  0.08333333  0.08333333       0.007
  -0.25000000  0.08333333  0.08333333       0.007
   0.00000000  0.16666667  0.08333333       0.007
   0.25000000  0.16666667  0.08333333       0.007
   0.50000000  0.16666667  0.08333333       0.007
  -0.25000000  0.16666667  0.08333333       0.007
   0.00000000  0.25000000  0.08333333       0.007
   0.25000000  0.25000000  0.08333333       0.007
   0.50000000  0.25000000  0.08333333       0.007
  -0.25000000  0.25000000  0.08333333       0.007
   0.00000000  0.33333333  0.08333333       0.007
   0.25000000  0.33333333  0.08333333       0.007
   0.50000000  0.33333333  0.08333333       0.007
  -0.25000000  0.33333333  0.08333333       0.007
   0.00000000  0.41666667  0.08333333       0.007
   0.25000000  0.41666667  0.08333333       0.007
   0.50000000  0.41666667  0.08333333       0.007
  -0.25000000  0.41666667  0.08333333       0.007
   0.00000000  0.50000000  0.08333333       0.003
   0.25000000  0.50000000  0.08333333       0.003
   0.50000000  0.50000000  0.08333333       0.003
  -0.25000000  0.50000000  0.08333333       0.003
   0.00000000  0.00000000  0.16666667       0.003
   0.25000000  0.00000000  0.16666667       0.003
   0.50000000  0.00000000  0.16666667       0.003
  -0.25000000  0.00000000  0.16666667       0.003
   0.00000000  0.08333333  0.16666667       0.007
   0.25000000  0.08333333  0.16666667       0.007
   0.50000000  0.08333333  0.16666667       0.007
  -0.25000000  0.08333333  0.16666667       0.007
   0.00000000  0.16666667  0.16666667       0.007
   0.25000000  0.16666667  0.16666667       0.007
   0.50000000  0.16666667  0.16666667       0.007
  -0.25000000  0.16666667  0.16666667       0.007
   0.00000000  0.25000000  0.16666667       0.007
   0.25000000  0.25000000  0.16666667       0.007
   0.50000000  0.25000000  0.16666667       0.007
  -0.25000000  0.25000000  0.16666667       0.007
   0.00000000  0.33333333  0.16666667       0.007
   0.25000000  0.33333333  0.16666667       0.007
   0.50000000  0.33333333  0.16666667       0.007
  -0.25000000  0.33333333  0.16666667       0.007
   0.00000000  0.41666667  0.16666667       0.007
   0.25000000  0.41666667  0.16666667       0.007
   0.50000000  0.41666667  0.16666667       0.007
  -0.25000000  0.41666667  0.16666667       0.007
   0.00000000  0.50000000  0.16666667       0.003
   0.25000000  0.50000000  0.16666667       0.003
   0.50000000  0.50000000  0.16666667       0.003
  -0.25000000  0.50000000  0.16666667       0.003
   0.00000000  0.00000000  0.25000000       0.003
   0.25000000  0.00000000  0.25000000       0.003
   0.50000000  0.00000000  0.25000000       0.003
  -0.25000000  0.00000000  0.25000000       0.003
   0.00000000  0.08333333  0.25000000       0.007
   0.25000000  0.08333333  0.25000000       0.007
   0.50000000  0.08333333  0.25000000       0.007
  -0.25000000  0.08333333  0.25000000       0.007
   0.00000000  0.16666667  0.25000000       0.007
   0.25000000  0.16666667  0.25000000       0.007
   0.50000000  0.16666667  0.25000000       0.007
  -0.25000000  0.16666667  0.25000000       0.007
   0.00000000  0.25000000  0.25000000       0.007
   0.25000000  0.25000000  0.25000000       0.007
   0.50000000  0.25000000  0.25000000       0.007
  -0.25000000  0.25000000  0.25000000       0.007
   0.00000000  0.33333333  0.25000000       0.007
   0.25000000  0.33333333  0.25000000       0.007
   0.50000000  0.33333333  0.25000000       0.007
  -0.25000000  0.33333333  0.25000000       0.007
   0.00000000  0.41666667  0.25000000       0.007
   0.25000000  0.41666667  0.25000000       0.007
   0.50000000  0.41666667  0.25000000       0.007
  -0.25000000  0.41666667  0.25000000       0.007
   0.00000000  0.50000000  0.25000000       0.003
   0.25000000  0.50000000  0.25000000       0.003
   0.50000000  0.50000000  0.25000000       0.003
  -0.25000000  0.50000000  0.25000000       0.003
   0.00000000  0.00000000  0.33333333       0.003
   0.25000000  0.00000000  0.33333333       0.003
   0.50000000  0.00000000  0.33333333       0.003
  -0.25000000  0.00000000  0.33333333       0.003
   0.00000000  0.08333333  0.33333333       0.007
   0.25000000  0.08333333  0.33333333       0.007
   0.50000000  0.08333333  0.33333333       0.007
  -0.25000000  0.08333333  0.33333333       0.007
   0.00000000  0.16666667  0.33333333       0.007
   0.25000000  0.16666667  0.33333333       0.007
   0.50000000  0.16666667  0.33333333       0.007
  -0.25000000  0.16666667  0.33333333       0.007
   0.00000000  0.25000000  0.33333333       0.007
   0.25000000  0.25000000  0.33333333       0.007
   0.50000000  0.25000000  0.33333333       0.007
  -0.25000000  0.25000000  0.33333333       0.007
   0.00000000  0.33333333  0.33333333       0.007
   0.25000000  0.33333333  0.33333333       0.007
   0.50000000  0.33333333  0.33333333       0.007
  -0.25000000  0.33333333  0.33333333       0.007
   0.00000000  0.41666667  0.33333333       0.007
   0.25000000  0.41666667  0.33333333       0.007
   0.50000000  0.41666667  0.33333333       0.007
  -0.25000000  0.41666667  0.33333333       0.007
   0.00000000  0.50000000  0.33333333       0.003
   0.25000000  0.50000000  0.33333333       0.003
   0.50000000  0.50000000  0.33333333       0.003
  -0.25000000  0.50000000  0.33333333       0.003
   0.00000000  0.00000000  0.41666667       0.003
   0.25000000  0.00000000  0.41666667       0.003
   0.50000000  0.00000000  0.41666667       0.003
  -0.25000000  0.00000000  0.41666667       0.003
   0.00000000  0.08333333  0.41666667       0.007
   0.25000000  0.08333333  0.41666667       0.007
   0.50000000  0.08333333  0.41666667       0.007
  -0.25000000  0.08333333  0.41666667       0.007
   0.00000000  0.16666667  0.41666667       0.007
   0.25000000  0.16666667  0.41666667       0.007
   0.50000000  0.16666667  0.41666667       0.007
  -0.25000000  0.16666667  0.41666667       0.007
   0.00000000  0.25000000  0.41666667       0.007
   0.25000000  0.25000000  0.41666667       0.007
   0.50000000  0.25000000  0.41666667       0.007
  -0.25000000  0.25000000  0.41666667       0.007
   0.00000000  0.33333333  0.41666667       0.007
   0.25000000  0.33333333  0.41666667       0.007
   0.50000000  0.33333333  0.41666667       0.007
  -0.25000000  0.33333333  0.41666667       0.007
   0.00000000  0.41666667  0.41666667       0.007
   0.25000000  0.41666667  0.41666667       0.007
   0.50000000  0.41666667  0.41666667       0.007
  -0.25000000  0.41666667  0.41666667       0.007
   0.00000000  0.50000000  0.41666667       0.003
   0.25000000  0.50000000  0.41666667       0.003
   0.50000000  0.50000000  0.41666667       0.003
  -0.25000000  0.50000000  0.41666667       0.003
   0.00000000  0.00000000  0.50000000       0.002
   0.25000000  0.00000000  0.50000000       0.003
   0.50000000  0.00000000  0.50000000       0.002
   0.00000000  0.08333333  0.50000000       0.003
   0.25000000  0.08333333  0.50000000       0.007
   0.50000000  0.08333333  0.50000000       0.003
   0.00000000  0.16666667  0.50000000       0.003
   0.25000000  0.16666667  0.50000000       0.007
   0.50000000  0.16666667  0.50000000       0.003
   0.00000000  0.25000000  0.50000000       0.003
   0.25000000  0.25000000  0.50000000       0.007
   0.50000000  0.25000000  0.50000000       0.003
   0.00000000  0.33333333  0.50000000       0.003
   0.25000000  0.33333333  0.50000000       0.007
   0.50000000  0.33333333  0.50000000       0.003
   0.00000000  0.41666667  0.50000000       0.003
   0.25000000  0.41666667  0.50000000       0.007
   0.50000000  0.41666667  0.50000000       0.003
   0.00000000  0.50000000  0.50000000       0.002
   0.25000000  0.50000000  0.50000000       0.003
   0.50000000  0.50000000  0.50000000       0.002

 position of ions in fractional coordinates (direct lattice) 
   0.50000000  0.00000000  0.50000000
   0.15587366  0.00000000  0.46137374
   0.84412632  0.00000000  0.53862623
   0.87805559  0.50000000  0.99541334
   0.12194440  0.50000000  0.00458663
   0.00000000  0.50000000  0.50000000
   0.65587368  0.50000000  0.46137374
   0.34412635  0.50000000  0.53862623
   0.37805559  0.00000000  0.99541334
   0.62194441  0.00000000  0.00458663
   0.00000000  0.00000000  0.00000000
   0.25805145  0.00000000  0.24172886
   0.74194852  0.00000000  0.75827112
   0.10866387  0.00000000  0.77167894
   0.89133614  0.00000000  0.22832103
   0.50000000  0.50000000  0.00000000
   0.75805148  0.50000000  0.24172886
   0.24194855  0.50000000  0.75827112
   0.60866386  0.50000000  0.77167894
   0.39133614  0.50000000  0.22832103

 position of ions in cartesian coordinates  (Angst):
   4.07303097  0.00000000  2.84671313
   0.05578734  0.00000000  2.62417984
   8.09027454  0.00000000  3.06924626
   6.68634942  2.05236593  5.66630695
   1.45971254  2.05236593  0.02711917
  -1.98685571  2.05236593  2.84242913
   6.11567420  2.05236593  2.62846383
   2.03038822  2.05236593  3.06496226
   0.62646274  0.00000000  5.66202295
   7.51959931  0.00000000  0.03140317
   0.00000000  0.00000000  0.00000000
   2.16696436  0.00000000  1.37640531
   5.97909728  0.00000000  4.31702086
  -1.74944790  0.00000000  4.38781641
   9.89551015  0.00000000  1.30560968
   6.05988668  2.05236593  0.00428400
   8.22685141  2.05236593  1.38068931
  -0.08078903  2.05236593  4.31273686
   4.31043860  2.05236593  4.39210041
   3.83562347  2.05236593  1.30132568



--------------------------------------------------------------------------------------------------------


 k-point  1 :   0.0000 0.0000 0.0000  plane waves:    6091
 k-point  2 :   0.2500 0.0000 0.0000  plane waves:    6094
 k-point  3 :   0.5000 0.0000 0.0000  plane waves:    6078
 k-point  4 :   0.0000 0.0833 0.0000  plane waves:    6101
 k-point  5 :   0.2500 0.0833 0.0000  plane waves:    6095
 k-point  6 :   0.5000 0.0833 0.0000  plane waves:    6094
 k-point  7 :   0.0000 0.1667 0.0000  plane waves:    6106
 k-point  8 :   0.2500 0.1667 0.0000  plane waves:    6105
 k-point  9 :   0.5000 0.1667 0.0000  plane waves:    6108
 k-point 10 :   0.0000 0.2500 0.0000  plane waves:    6124
 k-point 11 :   0.2500 0.2500 0.0000  plane waves:    6124
 k-point 12 :   0.5000 0.2500 0.0000  plane waves:    6138
 k-point 13 :   0.0000 0.3333 0.0000  plane waves:    6132
 k-point 14 :   0.2500 0.3333 0.0000  plane waves:    6141
 k-point 15 :   0.5000 0.3333 0.0000  plane waves:    6144
 k-point 16 :   0.0000 0.4167 0.0000  plane waves:    6130
 k-point 17 :   0.2500 0.4167 0.0000  plane waves:    6152
 k-point 18 :   0.5000 0.4167 0.0000  plane waves:    6146
 k-point 19 :   0.0000 0.5000 0.0000  plane waves:    6138
 k-point 20 :   0.2500 0.5000 0.0000  plane waves:    6146
 k-point 21 :   0.5000 0.5000 0.0000  plane waves:    6152
 k-point 22 :   0.0000 0.0000 0.0833  plane waves:    6101
 k-point 23 :   0.2500 0.0000 0.0833  plane waves:    6112
 k-point 24 :   0.5000 0.0000 0.0833  plane waves:    6105
 k-point 25 :  -0.2500 0.0000 0.0833  plane waves:    6109
 k-point 26 :   0.0000 0.0833 0.0833  plane waves:    6101
 k-point 27 :   0.2500 0.0833 0.0833  plane waves:    6112
 k-point 28 :   0.5000 0.0833 0.0833  plane waves:    6106
 k-point 29 :  -0.2500 0.0833 0.0833  plane waves:    6101
 k-point 30 :   0.0000 0.1667 0.0833  plane waves:    6107
 k-point 31 :   0.2500 0.1667 0.0833  plane waves:    6117
 k-point 32 :   0.5000 0.1667 0.0833  plane waves:    6115
 k-point 33 :  -0.2500 0.1667 0.0833  plane waves:    6111
 k-point 34 :   0.0000 0.2500 0.0833  plane waves:    6117
 k-point 35 :   0.2500 0.2500 0.0833  plane waves:    6129
 k-point 36 :   0.5000 0.2500 0.0833  plane waves:    6131
 k-point 37 :  -0.2500 0.2500 0.0833  plane waves:    6117
 k-point 38 :   0.0000 0.3333 0.0833  plane waves:    6139
 k-point 39 :   0.2500 0.3333 0.0833  plane waves:    6140
 k-point 40 :   0.5000 0.3333 0.0833  plane waves:    6148
 k-point 41 :  -0.2500 0.3333 0.0833  plane waves:    6146
 k-point 42 :   0.0000 0.4167 0.0833  plane waves:    6150
 k-point 43 :   0.2500 0.4167 0.0833  plane waves:    6148
 k-point 44 :   0.5000 0.4167 0.0833  plane waves:    6155
 k-point 45 :  -0.2500 0.4167 0.0833  plane waves:    6151
 k-point 46 :   0.0000 0.5000 0.0833  plane waves:    6138
 k-point 47 :   0.2500 0.5000 0.0833  plane waves:    6152
 k-point 48 :   0.5000 0.5000 0.0833  plane waves:    6154
 k-point 49 :  -0.2500 0.5000 0.0833  plane waves:    6146
 k-point 50 :   0.0000 0.0000 0.1667  plane waves:    6109
 k-point 51 :   0.2500 0.0000 0.1667  plane waves:    6114
 k-point 52 :   0.5000 0.0000 0.1667  plane waves:    6125
 k-point 53 :  -0.2500 0.0000 0.1667  plane waves:    6125
 k-point 54 :   0.0000 0.0833 0.1667  plane waves:    6109
 k-point 55 :   0.2500 0.0833 0.1667  plane waves:    6122
 k-point 56 :   0.5000 0.0833 0.1667  plane waves:    6120
 k-point 57 :  -0.2500 0.0833 0.1667  plane waves:    6108
 k-point 58 :   0.0000 0.1667 0.1667  plane waves:    6113
 k-point 59 :   0.2500 0.1667 0.1667  plane waves:    6126
 k-point 60 :   0.5000 0.1667 0.1667  plane waves:    6128
 k-point 61 :  -0.2500 0.1667 0.1667  plane waves:    6115
 k-point 62 :   0.0000 0.2500 0.1667  plane waves:    6128
 k-point 63 :   0.2500 0.2500 0.1667  plane waves:    6134
 k-point 64 :   0.5000 0.2500 0.1667  plane waves:    6123
 k-point 65 :  -0.2500 0.2500 0.1667  plane waves:    6131
 k-point 66 :   0.0000 0.3333 0.1667  plane waves:    6142
 k-point 67 :   0.2500 0.3333 0.1667  plane waves:    6153
 k-point 68 :   0.5000 0.3333 0.1667  plane waves:    6143
 k-point 69 :  -0.2500 0.3333 0.1667  plane waves:    6146
 k-point 70 :   0.0000 0.4167 0.1667  plane waves:    6138
 k-point 71 :   0.2500 0.4167 0.1667  plane waves:    6151
 k-point 72 :   0.5000 0.4167 0.1667  plane waves:    6147
 k-point 73 :  -0.2500 0.4167 0.1667  plane waves:    6151
 k-point 74 :   0.0000 0.5000 0.1667  plane waves:    6148
 k-point 75 :   0.2500 0.5000 0.1667  plane waves:    6138
 k-point 76 :   0.5000 0.5000 0.1667  plane waves:    6146
 k-point 77 :  -0.2500 0.5000 0.1667  plane waves:    6150
 k-point 78 :   0.0000 0.0000 0.2500  plane waves:    6121
 k-point 79 :   0.2500 0.0000 0.2500  plane waves:    6120
 k-point 80 :   0.5000 0.0000 0.2500  plane waves:    6121
 k-point 81 :  -0.2500 0.0000 0.2500  plane waves:    6148
 k-point 82 :   0.0000 0.0833 0.2500  plane waves:    6122
 k-point 83 :   0.2500 0.0833 0.2500  plane waves:    6124
 k-point 84 :   0.5000 0.0833 0.2500  plane waves:    6122
 k-point 85 :  -0.2500 0.0833 0.2500  plane waves:    6112
 k-point 86 :   0.0000 0.1667 0.2500  plane waves:    6130
 k-point 87 :   0.2500 0.1667 0.2500  plane waves:    6129
 k-point 88 :   0.5000 0.1667 0.2500  plane waves:    6130
 k-point 89 :  -0.2500 0.1667 0.2500  plane waves:    6121
 k-point 90 :   0.0000 0.2500 0.2500  plane waves:    6131
 k-point 91 :   0.2500 0.2500 0.2500  plane waves:    6138
 k-point 92 :   0.5000 0.2500 0.2500  plane waves:    6131
 k-point 93 :  -0.2500 0.2500 0.2500  plane waves:    6135
 k-point 94 :   0.0000 0.3333 0.2500  plane waves:    6138
 k-point 95 :   0.2500 0.3333 0.2500  plane waves:    6148
 k-point 96 :   0.5000 0.3333 0.2500  plane waves:    6139
 k-point 97 :  -0.2500 0.3333 0.2500  plane waves:    6138
 k-point 98 :   0.0000 0.4167 0.2500  plane waves:    6142
 k-point 99 :   0.2500 0.4167 0.2500  plane waves:    6149
 k-point ** :   0.5000 0.4167 0.2500  plane waves:    6141
 k-point ** :  -0.2500 0.4167 0.2500  plane waves:    6150
 k-point ** :   0.0000 0.5000 0.2500  plane waves:    6142
 k-point ** :   0.2500 0.5000 0.2500  plane waves:    6136
 k-point ** :   0.5000 0.5000 0.2500  plane waves:    6142
 k-point ** :  -0.2500 0.5000 0.2500  plane waves:    6140
 k-point ** :   0.0000 0.0000 0.3333  plane waves:    6119
 k-point ** :   0.2500 0.0000 0.3333  plane waves:    6119
 k-point ** :   0.5000 0.0000 0.3333  plane waves:    6138
 k-point ** :  -0.2500 0.0000 0.3333  plane waves:    6141
 k-point ** :   0.0000 0.0833 0.3333  plane waves:    6131
 k-point ** :   0.2500 0.0833 0.3333  plane waves:    6119
 k-point ** :   0.5000 0.0833 0.3333  plane waves:    6134
 k-point ** :  -0.2500 0.0833 0.3333  plane waves:    6131
 k-point ** :   0.0000 0.1667 0.3333  plane waves:    6131
 k-point ** :   0.2500 0.1667 0.3333  plane waves:    6134
 k-point ** :   0.5000 0.1667 0.3333  plane waves:    6139
 k-point ** :  -0.2500 0.1667 0.3333  plane waves:    6131
 k-point ** :   0.0000 0.2500 0.3333  plane waves:    6133
 k-point ** :   0.2500 0.2500 0.3333  plane waves:    6145
 k-point ** :   0.5000 0.2500 0.3333  plane waves:    6141
 k-point ** :  -0.2500 0.2500 0.3333  plane waves:    6137
 k-point ** :   0.0000 0.3333 0.3333  plane waves:    6149
 k-point ** :   0.2500 0.3333 0.3333  plane waves:    6144
 k-point ** :   0.5000 0.3333 0.3333  plane waves:    6135
 k-point ** :  -0.2500 0.3333 0.3333  plane waves:    6137
 k-point ** :   0.0000 0.4167 0.3333  plane waves:    6148
 k-point ** :   0.2500 0.4167 0.3333  plane waves:    6150
 k-point ** :   0.5000 0.4167 0.3333  plane waves:    6135
 k-point ** :  -0.2500 0.4167 0.3333  plane waves:    6140
 k-point ** :   0.0000 0.5000 0.3333  plane waves:    6154
 k-point ** :   0.2500 0.5000 0.3333  plane waves:    6158
 k-point ** :   0.5000 0.5000 0.3333  plane waves:    6132
 k-point ** :  -0.2500 0.5000 0.3333  plane waves:    6134
 k-point ** :   0.0000 0.0000 0.4167  plane waves:    6117
 k-point ** :   0.2500 0.0000 0.4167  plane waves:    6122
 k-point ** :   0.5000 0.0000 0.4167  plane waves:    6132
 k-point ** :  -0.2500 0.0000 0.4167  plane waves:    6119
 k-point ** :   0.0000 0.0833 0.4167  plane waves:    6117
 k-point ** :   0.2500 0.0833 0.4167  plane waves:    6119
 k-point ** :   0.5000 0.0833 0.4167  plane waves:    6136
 k-point ** :  -0.2500 0.0833 0.4167  plane waves:    6132
 k-point ** :   0.0000 0.1667 0.4167  plane waves:    6137
 k-point ** :   0.2500 0.1667 0.4167  plane waves:    6136
 k-point ** :   0.5000 0.1667 0.4167  plane waves:    6138
 k-point ** :  -0.2500 0.1667 0.4167  plane waves:    6142
 k-point ** :   0.0000 0.2500 0.4167  plane waves:    6137
 k-point ** :   0.2500 0.2500 0.4167  plane waves:    6143
 k-point ** :   0.5000 0.2500 0.4167  plane waves:    6149
 k-point ** :  -0.2500 0.2500 0.4167  plane waves:    6150
 k-point ** :   0.0000 0.3333 0.4167  plane waves:    6135
 k-point ** :   0.2500 0.3333 0.4167  plane waves:    6141
 k-point ** :   0.5000 0.3333 0.4167  plane waves:    6142
 k-point ** :  -0.2500 0.3333 0.4167  plane waves:    6145
 k-point ** :   0.0000 0.4167 0.4167  plane waves:    6142
 k-point ** :   0.2500 0.4167 0.4167  plane waves:    6136
 k-point ** :   0.5000 0.4167 0.4167  plane waves:    6148
 k-point ** :  -0.2500 0.4167 0.4167  plane waves:    6145
 k-point ** :   0.0000 0.5000 0.4167  plane waves:    6162
 k-point ** :   0.2500 0.5000 0.4167  plane waves:    6150
 k-point ** :   0.5000 0.5000 0.4167  plane waves:    6126
 k-point ** :  -0.2500 0.5000 0.4167  plane waves:    6138
 k-point ** :   0.0000 0.0000 0.5000  plane waves:    6104
 k-point ** :   0.2500 0.0000 0.5000  plane waves:    6118
 k-point ** :   0.5000 0.0000 0.5000  plane waves:    6140
 k-point ** :   0.0000 0.0833 0.5000  plane waves:    6112
 k-point ** :   0.2500 0.0833 0.5000  plane waves:    6134
 k-point ** :   0.5000 0.0833 0.5000  plane waves:    6150
 k-point ** :   0.0000 0.1667 0.5000  plane waves:    6128
 k-point ** :   0.2500 0.1667 0.5000  plane waves:    6141
 k-point ** :   0.5000 0.1667 0.5000  plane waves:    6142
 k-point ** :   0.0000 0.2500 0.5000  plane waves:    6136
 k-point ** :   0.2500 0.2500 0.5000  plane waves:    6165
 k-point ** :   0.5000 0.2500 0.5000  plane waves:    6150
 k-point ** :   0.0000 0.3333 0.5000  plane waves:    6130
 k-point ** :   0.2500 0.3333 0.5000  plane waves:    6140
 k-point ** :   0.5000 0.3333 0.5000  plane waves:    6148
 k-point ** :   0.0000 0.4167 0.5000  plane waves:    6126
 k-point ** :   0.2500 0.4167 0.5000  plane waves:    6146
 k-point ** :   0.5000 0.4167 0.5000  plane waves:    6130
 k-point ** :   0.0000 0.5000 0.5000  plane waves:    6160
 k-point ** :   0.2500 0.5000 0.5000  plane waves:    6148
 k-point ** :   0.5000 0.5000 0.5000  plane waves:    6124

 maximum and minimum number of plane-waves per node :       276      230

 maximum number of plane-waves:      6165
 maximum index in each direction: 
   IXMAX=   21   IYMAX=    7   IZMAX=   11
   IXMIN=  -21   IYMIN=   -7   IZMIN=  -12

 WARNING: aliasing errors must be expected set NGX to  86 to avoid them
 WARNING: aliasing errors must be expected set NGY to  30 to avoid them
 WARNING: aliasing errors must be expected set NGZ to  48 to avoid them
 aliasing errors are usually negligible using standard VASP settings
 and one can safely disregard these warnings

 parallel 3D FFT for wavefunctions:
    minimum data exchange during FFTs selected (reduces bandwidth)
 parallel 3D FFT for charge:
    minimum data exchange during FFTs selected (reduces bandwidth)


 total amount of memory used by VASP on root node    78865. kBytes
========================================================================

   base      :      30000. kBytes
   nonl-proj :      13711. kBytes
   fftplans  :        443. kBytes
   grid      :        696. kBytes
   one-center:         15. kBytes
   wavefun   :      34000. kBytes

     INWAV:  cpu time    0.00: real time    0.00
 Broyden mixing: mesh for mixing (old mesh)
   NGX = 41   NGY = 15   NGZ = 23
  (NGX  =128   NGY  = 48   NGZ  = 72)
  gives a total of  14145 points

 initial charge density was supplied:
 charge density of overlapping atoms calculated
 number of electron     140.0000000 magnetization 
 keeping initial charge density in first step


--------------------------------------------------------------------------------------------------------


 Maximum index for augmentation-charges          416 (set IRDMAX)


--------------------------------------------------------------------------------------------------------


 First call to EWALD:  gamma=   0.270
 Maximum number of real-space cells 2x 4x 3
 Maximum number of reciprocal cells 5x 2x 3

 FEWALD executed in parallel
    FEWALD:  cpu time    0.00: real time    0.00


----------------------------------------- Iteration    1(   1)  ---------------------------------------


    POTLOK:  cpu time    0.02: real time    0.03
    SETDIJ:  cpu time    0.00: real time    0.00
     EDDAV:  cpu time    9.26: real time    9.36
       DOS:  cpu time    0.00: real time    0.00
    --------------------------------------------
      LOOP:  cpu time    9.30: real time    9.39

 eigenvalue-minimisations  : 30576
 total energy-change (2. order) : 0.9299073E+03  (-0.5405327E+04)
 number of electron     140.0000000 magnetization 
 augmentation part      140.0000000 magnetization 

 Free energy of the ion-electron system (eV)
  ---------------------------------------------------
  alpha Z        PSCENC =       567.97248648
  Ewald energy   TEWEN  =     -9350.75062251
  -Hartree energ DENC   =     -5384.14379394
  -exchange      EXHF   =         0.00000000
  -V(xc)+E(xc)   XCENC  =       175.30645291
  PAW double counting   =     11186.00686751   -12310.97252225
  entropy T*S    EENTRO =        -0.00767226
  eigenvalues    EBANDS =      1578.92712259
  atomic energy  EATOM  =     14467.56900741
  ---------------------------------------------------
  free energy    TOTEN  =       929.90732594 eV

  energy without entropy =      929.91499820  energy(sigma->0) =      929.91116207


--------------------------------------------------------------------------------------------------------




----------------------------------------- Iteration    1(   2)  ---------------------------------------


     EDDAV:  cpu time    9.40: real time    9.49
       DOS:  cpu time    0.00: real time    0.00
    --------------------------------------------
      LOOP:  cpu time    9.40: real time    9.51

 eigenvalue-minimisations  : 30576
 total energy-change (2. order) :-0.9286763E+03  (-0.8984298E+03)
 number of electron     140.0000000 magnetization 
 augmentation part      140.0000000 magnetization 

 Free energy of the ion-electron system (eV)
  ---------------------------------------------------
  alpha Z        PSCENC =       567.97248648
  Ewald energy   TEWEN  =     -9350.75062251
  -Hartree energ DENC   =     -5384.14379394
  -exchange      EXHF   =         0.00000000
  -V(xc)+E(xc)   XCENC  =       175.30645291
  PAW double counting   =     11186.00686751   -12310.97252225
  entropy T*S    EENTRO =        -0.01074904
  eigenvalues    EBANDS =       650.25387341
  atomic energy  EATOM  =     14467.56900741
  ---------------------------------------------------
  free energy    TOTEN  =         1.23099999 eV

  energy without entropy =        1.24174902  energy(sigma->0) =        1.23637450


--------------------------------------------------------------------------------------------------------




----------------------------------------- Iteration    1(   3)  ---------------------------------------


     EDDAV:  cpu time    9.78: real time    9.87
       DOS:  cpu time    0.01: real time    0.01
    --------------------------------------------
      LOOP:  cpu time    9.79: real time    9.89

 eigenvalue-minimisations  : 31956
 total energy-change (2. order) :-0.9354470E+02  (-0.8889871E+02)
 number of electron     140.0000000 magnetization 
 augmentation part      140.0000000 magnetization 

 Free energy of the ion-electron system (eV)
  ---------------------------------------------------
  alpha Z        PSCENC =       567.97248648
  Ewald energy   TEWEN  =     -9350.75062251
  -Hartree energ DENC   =     -5384.14379394
  -exchange      EXHF   =         0.00000000
  -V(xc)+E(xc)   XCENC  =       175.30645291
  PAW double counting   =     11186.00686751   -12310.97252225
  entropy T*S    EENTRO =        -0.00898867
  eigenvalues    EBANDS =       556.70741678
  atomic energy  EATOM  =     14467.56900741
  ---------------------------------------------------
  free energy    TOTEN  =       -92.31369628 eV

  energy without entropy =      -92.30470760  energy(sigma->0) =      -92.30920194


--------------------------------------------------------------------------------------------------------




----------------------------------------- Iteration    1(   4)  ---------------------------------------


     EDDAV:  cpu time   10.88: real time   10.95
       DOS:  cpu time    0.00: real time    0.00
    --------------------------------------------
      LOOP:  cpu time   10.88: real time   10.97

 eigenvalue-minimisations  : 35948
 total energy-change (2. order) :-0.3552760E+01  (-0.3490319E+01)
 number of electron     140.0000000 magnetization 
 augmentation part      140.0000000 magnetization 

 Free energy of the ion-electron system (eV)
  ---------------------------------------------------
  alpha Z        PSCENC =       567.97248648
  Ewald energy   TEWEN  =     -9350.75062251
  -Hartree energ DENC   =     -5384.14379394
  -exchange      EXHF   =         0.00000000
  -V(xc)+E(xc)   XCENC  =       175.30645291
[...]
     75       7.2796      0.00000
     76       7.2796      0.00000
     77       7.6712      0.00000
     78       7.6712      0.00000
     79       8.4812      0.00000
     80       8.4812      0.00000
     81       8.6354      0.00000
     82       8.6354      0.00000
     83      10.7185      0.00000
     84      10.7990      0.00000

 k-point   180 :       0.0000    0.5000    0.5000
  band No.  band energies     occupation 
      1      -1.2579      2.00000
      2      -1.2579      2.00000
      3      -1.1716      2.00000
      4      -1.1716      2.00000
      5      -0.9670      2.00000
      6      -0.9670      2.00000
      7      -0.7716      2.00000
      8      -0.7715      2.00000
      9       0.5285      2.00000
     10       0.5285      2.00000
     11       0.6479      2.00000
     12       0.6479      2.00000
     13       0.9981      2.00000
     14       0.9981      2.00000
     15       1.4557      2.00000
     16       1.4557      2.00000
     17       1.6088      2.00000
     18       1.6088      2.00000
     19       1.7526      2.00000
     20       1.7526      2.00000
     21       1.9064      2.00000
     22       1.9064      2.00000
     23       2.0393      2.00000
     24       2.0393      2.00000
     25       2.0582      2.00000
     26       2.0582      2.00000
     27       2.2100      2.00000
     28       2.2100      2.00000
     29       2.2534      2.00000
     30       2.2534      2.00000
     31       2.2840      2.00000
     32       2.2840      2.00000
     33       2.4094      2.00000
     34       2.4094      2.00000
     35       2.4333      2.00000
     36       2.4333      2.00000
     37       2.4762      2.00000
     38       2.4762      2.00000
     39       2.5366      2.00000
     40       2.5366      2.00000
     41       2.6067      2.00000
     42       2.6067      2.00000
     43       2.6265      2.00000
     44       2.6265      2.00000
     45       2.7335      2.00000
     46       2.7335      2.00000
     47       2.8749      2.00000
     48       2.8749      2.00000
     49       2.8916      2.00000
     50       2.8916      2.00000
     51       2.9123      2.00000
     52       2.9123      2.00000
     53       3.0696      2.00000
     54       3.0696      2.00000
     55       3.0896      2.00000
     56       3.0896      2.00000
     57       3.1427      2.00000
     58       3.1427      2.00000
     59       3.2397      2.00000
     60       3.2397      2.00000
     61       3.4379      2.00000
     62       3.4379      2.00000
     63       3.7509      2.00000
     64       3.7509      2.00000
     65       3.9208      2.00000
     66       3.9208      2.00000
     67       4.8996      2.00000
     68       4.8996      2.00000
     69       5.1334      2.00000
     70       5.1334      2.00000
     71       7.3740      0.00000
     72       7.3740      0.00000
     73       7.5785      0.00000
     74       7.5785      0.00000
     75       8.1877      0.00000
     76       8.1877      0.00000
     77       8.6073      0.00000
     78       8.6075      0.00000
     79       8.6619      0.00000
     80       8.6628      0.00000
     81       9.0913      0.00000
     82       9.1088      0.00000
     83       9.3123      0.00000
     84       9.3322      0.00000

 k-point   181 :       0.2500    0.5000    0.5000
  band No.  band energies     occupation 
      1      -1.3829      2.00000
      2      -1.3829      2.00000
      3      -1.2998      2.00000
      4      -1.2998      2.00000
      5      -0.6546      2.00000
      6      -0.6546      2.00000
      7      -0.5444      2.00000
      8      -0.5444      2.00000
      9       0.2690      2.00000
     10       0.2690      2.00000
     11       0.6107      2.00000
     12       0.6107      2.00000
     13       0.7289      2.00000
     14       0.7289      2.00000
     15       1.5731      2.00000
     16       1.5731      2.00000
     17       1.6562      2.00000
     18       1.6562      2.00000
     19       1.7983      2.00000
     20       1.7983      2.00000
     21       1.8786      2.00000
     22       1.8786      2.00000
     23       2.0193      2.00000
     24       2.0193      2.00000
     25       2.0626      2.00000
     26       2.0626      2.00000
     27       2.1396      2.00000
     28       2.1396      2.00000
     29       2.2238      2.00000
     30       2.2238      2.00000
     31       2.2941      2.00000
     32       2.2941      2.00000
     33       2.4162      2.00000
     34       2.4162      2.00000
     35       2.4293      2.00000
     36       2.4293      2.00000
     37       2.4462      2.00000
     38       2.4462      2.00000
     39       2.5545      2.00000
     40       2.5545      2.00000
     41       2.6241      2.00000
     42       2.6241      2.00000
     43       2.6645      2.00000
     44       2.6645      2.00000
     45       2.7158      2.00000
     46       2.7158      2.00000
     47       2.8397      2.00000
     48       2.8397      2.00000
     49       2.9116      2.00000
     50       2.9116      2.00000
     51       2.9721      2.00000
     52       2.9721      2.00000
     53       3.0447      2.00000
     54       3.0447      2.00000
     55       3.0967      2.00000
     56       3.0967      2.00000
     57       3.1617      2.00000
     58       3.1617      2.00000
     59       3.2157      2.00000
     60       3.2157      2.00000
     61       3.3971      2.00000
     62       3.3971      2.00000
     63       3.9685      2.00000
     64       3.9685      2.00000
     65       4.3091      2.00000
     66       4.3091      2.00000
     67       4.5928      2.00000
     68       4.5928      2.00000
     69       5.5396      2.00000
     70       5.5396      2.00000
     71       7.1782      0.00000
     72       7.1782      0.00000
     73       7.4128      0.00000
     74       7.4128      0.00000
     75       7.5410      0.00000
     76       7.5410      0.00000
     77       7.9755      0.00000
     78       7.9755      0.00000
     79       8.0745      0.00000
     80       8.0745      0.00000
     81       8.7613      0.00000
     82       8.7613      0.00000
     83       9.8317      0.00000
     84       9.8322      0.00000

 k-point   182 :       0.5000    0.5000    0.5000
  band No.  band energies     occupation 
      1      -1.4625      2.00000
      2      -1.4625      2.00000
      3      -1.3604      2.00000
      4      -1.3604      2.00000
      5      -0.2850      2.00000
      6      -0.2850      2.00000
      7      -0.1636      2.00000
      8      -0.1636      2.00000
      9      -0.0180      2.00000
     10      -0.0180      2.00000
     11       0.0662      2.00000
     12       0.0662      2.00000
     13       0.7507      2.00000
     14       0.7507      2.00000
     15       1.6383      2.00000
     16       1.6383      2.00000
     17       1.7289      2.00000
     18       1.7289      2.00000
     19       1.8131      2.00000
     20       1.8131      2.00000
     21       1.8471      2.00000
     22       1.8471      2.00000
     23       2.0159      2.00000
     24       2.0159      2.00000
     25       2.0329      2.00000
     26       2.0329      2.00000
     27       2.0735      2.00000
     28       2.0735      2.00000
     29       2.2316      2.00000
     30       2.2316      2.00000
     31       2.2953      2.00000
     32       2.2954      2.00000
     33       2.4113      2.00000
     34       2.4113      2.00000
     35       2.4169      2.00000
     36       2.4169      2.00000
     37       2.4514      2.00000
     38       2.4514      2.00000
     39       2.5522      2.00000
     40       2.5522      2.00000
     41       2.6185      2.00000
     42       2.6185      2.00000
     43       2.7069      2.00000
     44       2.7069      2.00000
     45       2.7081      2.00000
     46       2.7081      2.00000
     47       2.8270      2.00000
     48       2.8270      2.00000
     49       2.9114      2.00000
     50       2.9114      2.00000
     51       3.0107      2.00000
     52       3.0107      2.00000
     53       3.0345      2.00000
     54       3.0345      2.00000
     55       3.0994      2.00000
     56       3.0994      2.00000
     57       3.1817      2.00000
     58       3.1817      2.00000
     59       3.2150      2.00000
     60       3.2150      2.00000
     61       3.3511      2.00000
     62       3.3511      2.00000
     63       4.3080      2.00000
     64       4.3080      2.00000
     65       4.3653      2.00000
     66       4.3653      2.00000
     67       4.7800      2.00000
     68       4.7800      2.00000
     69       5.7425      2.00000
     70       5.7425      2.00000
     71       6.7803      0.00001
     72       6.7803      0.00001
     73       7.0708      0.00000
     74       7.0708      0.00000
     75       7.1982      0.00000
     76       7.1982      0.00000
     77       7.5378      0.00000
     78       7.5378      0.00000
     79       8.2794      0.00000
     80       8.2794      0.00000
     81       8.3014      0.00000
     82       8.3014      0.00000
     83      10.9476      0.00000
     84      10.9856      0.00000


--------------------------------------------------------------------------------------------------------


 soft charge-density along one line, spin component           1
         0         1         2         3         4         5         6         7         8         9
 total charge-density along one line

 pseudopotential strength for first ion, spin component:           1
  8.604  -0.004   0.000   0.000   0.000   0.000   0.000   0.000
 -0.004   0.000   0.000   0.000   0.000  -0.000  -0.000  -0.000
  0.000   0.000   2.016   0.000  -0.000  -0.023  -0.000   0.000
  0.000   0.000   0.000   2.016  -0.000  -0.000  -0.023  -0.000
  0.000   0.000  -0.000  -0.000   2.016   0.000  -0.000  -0.023
  0.000  -0.000  -0.023  -0.000   0.000  -0.013  -0.000   0.000
  0.000  -0.000  -0.000  -0.023  -0.000  -0.000  -0.013   0.000
  0.000  -0.000   0.000  -0.000  -0.023   0.000   0.000  -0.013
 total augmentation occupancy for first ion, spin component:           1
  1.214  -0.660   0.000   0.000  -0.000  -0.000   0.000   0.000
 -0.660   0.564   0.000   0.000  -0.000   0.000   0.000   0.000
  0.000   0.000   0.838   0.000   0.000  -0.182   0.000  -0.000
  0.000   0.000  -0.000   0.878   0.139  -0.000  -0.185  -0.043
 -0.000  -0.000   0.000   0.139   0.810  -0.000  -0.043  -0.164
 -0.000   0.000  -0.182   0.000   0.000   0.045  -0.000  -0.000
  0.000   0.000   0.000  -0.185  -0.043  -0.000   0.045   0.012
  0.000   0.000   0.000  -0.043  -0.164   0.000   0.012   0.038


------------------------ aborting loop because EDIFF is reached ----------------------------------------


    CHARGE:  cpu time    0.46: real time    0.46
    FORLOC:  cpu time    0.00: real time    0.00
    FORNL :  cpu time    2.93: real time    2.93
    STRESS:  cpu time    2.98: real time    2.98
    FORCOR:  cpu time    0.01: real time    0.01
    FORHAR:  cpu time    0.00: real time    0.00
    MIXING:  cpu time    0.00: real time    0.00
    OFIELD:  cpu time    0.00: real time    0.00

  FORCE on cell =-STRESS in cart. coord.  units (eV):
  Direction    XX          YY          ZZ          XY          YZ          ZX
  --------------------------------------------------------------------------------------
  Alpha Z   567.97249   567.97249   567.97249
  Ewald   -2698.88973 -3360.76161 -3291.12147    -0.00000    -0.00000   156.66245
  Hartree  2027.78912  1492.62298  1587.52425     0.00000    -0.00000   128.39845
  E(xc)    -715.66453  -715.91105  -715.68269    -0.00000     0.00000    -0.02963
  Local    -515.67051   681.68733   514.16942     0.00000     0.00000  -284.72311
  n-local  -165.32537  -164.16691  -169.57656     0.01061     0.25012     0.51476
  augment   562.31051   561.94450   564.89521     0.00000    -0.00000    -0.43983
  Kinetic   937.75372   936.88859   942.09665    -1.82537     3.00060    -0.38775
  Fock        0.00000     0.00000     0.00000     0.00000     0.00000     0.00000
  -------------------------------------------------------------------------------------
  Total       0.27571     0.27631     0.27729     0.00000     0.00000    -0.00467
  in kB       1.56117     1.56455     1.57010     0.00000     0.00000    -0.02642
  external pressure =        1.57 kB  Pullay stress =        0.00 kB


 VOLUME and BASIS-vectors are now :
 -----------------------------------------------------------------------------
  energy-cutoff  :      450.00
  volume of cell :      282.95
      direct lattice vectors                 reciprocal lattice vectors
    12.119773361  0.000000000  0.008567996     0.082469041 -0.000000000  0.057645794
     0.000000000  4.104731858  0.000000000     0.000000000  0.243621273 -0.000000000
    -3.973711412  0.000000000  5.684858262    -0.000124294  0.000000000  0.175818999

  length of vectors
    12.119776389  4.104731858  6.935992780     0.100618986  0.243621273  0.175819043


 FORCES acting on ions
    electron-ion (+dipol)            ewald-force                    non-local-force                 convergence-correction
 -----------------------------------------------------------------------------------------------
   0.105E-04 -.122E-13 0.128E-04   -.136E-04 0.221E-14 -.223E-04   0.529E-22 0.000E+00 0.000E+00   0.706E-07 0.161E-14 0.271E-06
   -.283E+02 0.930E-14 0.698E+00   0.290E+02 0.327E-14 -.941E+00   -.668E+00 -.694E-17 0.242E+00   0.571E-03 0.106E-13 0.117E-03
   0.283E+02 0.805E-13 -.698E+00   -.290E+02 0.156E-14 0.941E+00   0.668E+00 0.000E+00 -.242E+00   -.571E-03 -.891E-14 -.117E-03
   -.543E+02 0.796E-12 0.303E+01   0.550E+02 0.271E-14 -.314E+01   -.735E+00 -.347E-17 0.109E+00   0.161E-02 0.112E-13 -.270E-05
   0.543E+02 -.313E-13 -.303E+01   -.550E+02 -.699E-14 0.314E+01   0.735E+00 0.173E-17 -.109E+00   -.161E-02 -.966E-14 0.283E-05
   0.506E-05 -.134E-13 -.126E-04   -.461E-05 0.372E-14 0.199E-04   0.000E+00 0.000E+00 0.000E+00   0.285E-07 0.134E-14 -.297E-06
   -.283E+02 0.133E-11 0.698E+00   0.290E+02 -.203E-14 -.941E+00   -.668E+00 0.694E-17 0.242E+00   0.571E-03 0.756E-14 0.117E-03
   0.283E+02 -.473E-12 -.698E+00   -.290E+02 -.108E-13 0.941E+00   0.668E+00 0.000E+00 -.242E+00   -.571E-03 -.115E-13 -.117E-03
   -.543E+02 0.186E-13 0.303E+01   0.550E+02 -.881E-14 -.314E+01   -.735E+00 0.347E-17 0.109E+00   0.161E-02 0.125E-13 -.257E-05
   0.543E+02 -.483E-13 -.303E+01   -.550E+02 0.138E-14 0.314E+01   0.735E+00 0.520E-17 -.109E+00   -.161E-02 -.101E-13 0.243E-05
   -.186E-04 -.248E-13 0.688E-04   0.336E-04 0.475E-14 -.104E-03   0.106E-21 0.000E+00 0.000E+00   -.147E-05 -.257E-13 0.656E-06
   0.923E+02 -.834E-13 -.231E+03   -.935E+02 -.270E-13 0.231E+03   0.123E+01 -.347E-17 -.140E+00   -.342E-02 0.118E-12 0.142E-01
   -.923E+02 -.516E-13 0.231E+03   0.935E+02 0.209E-13 -.231E+03   -.123E+01 0.173E-17 0.140E+00   0.342E-02 -.130E-12 -.142E-01
   0.568E+02 -.125E-12 0.161E+03   -.577E+02 -.345E-13 -.160E+03   0.894E+00 0.542E-19 -.123E+01   -.330E-02 0.843E-13 -.124E-01
   -.568E+02 0.974E-14 -.161E+03   0.577E+02 -.253E-13 0.160E+03   -.894E+00 0.000E+00 0.123E+01   0.330E-02 -.180E-12 0.124E-01
   -.602E-04 -.150E-11 -.367E-04   0.796E-04 0.285E-14 0.476E-04   0.635E-21 0.000E+00 0.424E-21   0.838E-06 -.263E-13 -.446E-06
   0.923E+02 -.135E-10 -.231E+03   -.935E+02 0.118E-13 0.231E+03   0.123E+01 -.347E-17 -.140E+00   -.343E-02 0.104E-12 0.142E-01
   -.923E+02 -.138E-11 0.231E+03   0.935E+02 0.359E-13 -.231E+03   -.123E+01 -.173E-17 0.140E+00   0.343E-02 -.157E-12 -.142E-01
   0.568E+02 -.283E-11 0.161E+03   -.577E+02 -.327E-13 -.160E+03   0.894E+00 0.542E-19 -.123E+01   -.331E-02 0.103E-12 -.124E-01
   -.568E+02 0.549E-11 -.161E+03   0.577E+02 0.222E-13 0.160E+03   -.894E+00 0.000E+00 0.123E+01   0.331E-02 -.158E-12 0.124E-01
 -----------------------------------------------------------------------------------------------
   -.342E-04 -.124E-10 0.204E-04   -.426E-13 -.348E-13 0.853E-13   -.444E-15 0.108E-18 -.222E-15   0.696E-06 -.265E-12 -.279E-06


 POSITION                                       TOTAL-FORCE (eV/Angst)
 -----------------------------------------------------------------------------------
      4.07303      0.00000      2.84671        -0.000000     -0.000000     -0.000000
      0.05579      0.00000      2.62418        -0.000084     -0.000000     -0.000405
      8.09027      0.00000      3.06925         0.000084     -0.000000      0.000405
      6.68635      2.05237      5.66631        -0.000021     -0.000000     -0.000261
      1.45971      2.05237      0.02712         0.000021     -0.000000      0.000261
     -1.98686      2.05237      2.84243        -0.000000     -0.000000     -0.000000
      6.11567      2.05237      2.62846        -0.000084     -0.000000     -0.000405
      2.03039      2.05237      3.06496         0.000084     -0.000000      0.000405
      0.62646      0.00000      5.66202        -0.000021     -0.000000     -0.000261
      7.51960      0.00000      0.03140         0.000021     -0.000000      0.000261
      0.00000      0.00000      0.00000        -0.000000     -0.000000     -0.000000
      2.16696      0.00000      1.37641        -0.000505     -0.000000      0.000339
      5.97910      0.00000      4.31702         0.000505      0.000000     -0.000339
     -1.74945      0.00000      4.38782        -0.000087      0.000000      0.000214
      9.89551      0.00000      1.30561         0.000087      0.000000     -0.000214
      6.05989      2.05237      0.00428        -0.000000     -0.000000     -0.000000
      8.22685      2.05237      1.38069        -0.000505      0.000000      0.000339
     -0.08079      2.05237      4.31274         0.000505     -0.000000     -0.000339
      4.31044      2.05237      4.39210        -0.000087     -0.000000      0.000214
      3.83562      2.05237      1.30133         0.000087     -0.000000     -0.000214
 -----------------------------------------------------------------------------------
    total drift:                               -0.000033     -0.000000      0.000020


--------------------------------------------------------------------------------------------------------



  FREE ENERGIE OF THE ION-ELECTRON SYSTEM (eV)
  ---------------------------------------------------
  free  energy   TOTEN  =       -78.66885684 eV

  energy  without entropy=      -78.65908688  energy(sigma->0) =      -78.66397186



--------------------------------------------------------------------------------------------------------


    POTLOK:  cpu time    0.02: real time    0.02


--------------------------------------------------------------------------------------------------------




--------------------------------------------------------------------------------------------------------


  
 reached required accuracy - stopping structural energy minimisation
     LOOP+:  cpu time  135.56: real time  137.92
    4ORBIT:  cpu time    0.00: real time    0.00

 total amount of memory used by VASP on root node    78865. kBytes
========================================================================

   base      :      30000. kBytes
   nonl-proj :      13711. kBytes
   fftplans  :        443. kBytes
   grid      :        696. kBytes
   one-center:         15. kBytes
   wavefun   :      34000. kBytes

  
  
 General timing and accounting informations for this job:
 ========================================================
  
                  Total CPU time used (sec):      142.129
                            User time (sec):      137.985
                          System time (sec):        4.144
                         Elapsed time (sec):      144.796
  
                   Maximum memory used (kb):       71628.
                   Average memory used (kb):           0.
  
                          Minor page faults:        18754
                          Major page faults:            0
                 Voluntary context switches:        70918
