AlCu                                    
           1
    12.119773    0.000000    0.008568
     0.000000    4.104732    0.000000
    -3.973711    0.000000    5.684858
   Al   Cu
  10  10
Direct configuration=     1
   0.50000000  0.00000000  0.50000000
   0.15587366  0.00000000  0.46137374
   0.84412632  0.00000000  0.53862623
   0.87805559  0.50000000  0.99541334
   0.12194440  0.50000000  0.00458663
   0.00000000  0.50000000  0.50000000
   0.65587368  0.50000000  0.46137374
   0.34412635  0.50000000  0.53862623
   0.37805559  0.00000000  0.99541334
   0.62194441  0.00000000  0.00458663
   0.00000000  0.00000000  0.00000000
   0.25805145  0.00000000  0.24172886
   0.74194852  0.00000000  0.75827112
   0.10866387  0.00000000  0.77167894
   0.89133614  0.00000000  0.22832103
   0.50000000  0.50000000  0.00000000
   0.75805148  0.50000000  0.24172886
   0.24194855  0.50000000  0.75827112
   0.60866386  0.50000000  0.77167894
   0.39133614  0.50000000  0.22832103
