       N       E                     dE             d eps       ncg     rms          rms(c)
DAV:   1     0.566294348876E+03    0.56629E+03   -0.30520E+04 29688   0.122E+03
DAV:   2    -0.637223867093E+02   -0.63002E+03   -0.60732E+03 29512   0.300E+02
DAV:   3    -0.169719268082E+03   -0.10600E+03   -0.99416E+02 41232   0.105E+02
DAV:   4    -0.174658733043E+03   -0.49395E+01   -0.48746E+01 37568   0.246E+01
DAV:   5    -0.174757779041E+03   -0.99046E-01   -0.98702E-01 37474   0.356E+00    0.193E+01
RMM:   6    -0.163055122447E+03    0.11703E+02   -0.12562E+02 29627   0.408E+01    0.521E+00
RMM:   7    -0.161503136773E+03    0.15520E+01   -0.35095E+00 29549   0.735E+00    0.318E+00
RMM:   8    -0.161526692716E+03   -0.23556E-01   -0.64947E+00 29600   0.873E+00    0.278E+00
RMM:   9    -0.161104144042E+03    0.42255E+00   -0.31020E+00 29512   0.700E+00    0.671E-01
RMM:  10    -0.161081962563E+03    0.22181E-01   -0.10462E-01 29748   0.131E+00    0.302E-01
RMM:  11    -0.161078073594E+03    0.38890E-02   -0.17997E-02 29765   0.498E-01    0.106E-01
RMM:  12    -0.161078011048E+03    0.62547E-04   -0.72490E-03 30169   0.248E-01    0.350E-02
RMM:  13    -0.161077974947E+03    0.36101E-04   -0.48760E-04 30561   0.872E-02    0.368E-02
RMM:  14    -0.161077923670E+03    0.51277E-04   -0.39654E-04 29540   0.755E-02    0.389E-03
RMM:  15    -0.161077928948E+03   -0.52776E-05   -0.59942E-05 29236   0.136E-02    0.623E-03
RMM:  16    -0.161077926909E+03    0.20387E-05   -0.45149E-06 22490   0.690E-03    0.279E-03
RMM:  17    -0.161077926211E+03    0.69782E-06   -0.62930E-06 24233   0.747E-03
   1 F= -.16107793E+03 E0= -.16106890E+03  d E =-.161078E+03
       N       E                     dE             d eps       ncg     rms          rms(c)
DAV:   1    -0.161083645534E+03   -0.57186E-02   -0.12274E-01 32798   0.106E+00    0.837E-02
RMM:   2    -0.161084122835E+03   -0.47730E-03   -0.49655E-03 29613   0.263E-01    0.112E-01
RMM:   3    -0.161083712663E+03    0.41017E-03   -0.50030E-04 29952   0.771E-02    0.693E-02
RMM:   4    -0.161083550481E+03    0.16218E-03   -0.17853E-03 29552   0.148E-01    0.484E-03
RMM:   5    -0.161083574322E+03   -0.23841E-04   -0.23625E-04 32506   0.336E-02    0.194E-02
RMM:   6    -0.161083555816E+03    0.18505E-04   -0.41922E-05 29532   0.191E-02    0.792E-03
RMM:   7    -0.161083554459E+03    0.13573E-05   -0.43294E-05 29126   0.221E-02    0.254E-03
RMM:   8    -0.161083554393E+03    0.66429E-07   -0.20101E-06 19589   0.312E-03
   2 F= -.16108355E+03 E0= -.16107458E+03  d E =-.562818E-02
       N       E                     dE             d eps       ncg     rms          rms(c)
DAV:   1    -0.161085538001E+03   -0.19835E-02   -0.12332E-01 32104   0.106E+00    0.838E-02
RMM:   2    -0.161085417327E+03    0.12067E-03   -0.19322E-03 29584   0.177E-01    0.421E-03
RMM:   3    -0.161085450994E+03   -0.33667E-04   -0.27198E-04 32306   0.520E-02    0.185E-02
RMM:   4    -0.161085436372E+03    0.14622E-04   -0.52192E-05 29580   0.266E-02    0.632E-03
RMM:   5    -0.161085435913E+03    0.45919E-06   -0.16033E-05 27634   0.112E-02    0.907E-04
RMM:   6    -0.161085436005E+03   -0.92082E-07   -0.50164E-07 17888   0.322E-03
   3 F= -.16108544E+03 E0= -.16107652E+03  d E =-.750979E-02
       N       E                     dE             d eps       ncg     rms          rms(c)
DAV:   1    -0.161086021030E+03   -0.58512E-03   -0.70008E-03 32358   0.265E-01    0.149E-02
RMM:   2    -0.161086433348E+03   -0.41232E-03   -0.29070E-03 29534   0.203E-01    0.852E-02
RMM:   3    -0.161086339406E+03    0.93942E-04   -0.12020E-04 29739   0.292E-02    0.863E-02
RMM:   4    -0.161086035387E+03    0.30402E-03   -0.16072E-03 29521   0.146E-01    0.156E-02
RMM:   5    -0.161086056675E+03   -0.21288E-04   -0.37572E-04 32955   0.468E-02    0.117E-02
RMM:   6    -0.161086052476E+03    0.41995E-05   -0.11531E-05 23202   0.109E-02    0.639E-03
RMM:   7    -0.161086052333E+03    0.14263E-06   -0.15677E-05 26616   0.130E-02    0.705E-04
RMM:   8    -0.161086052288E+03    0.45029E-07   -0.40190E-07 16815   0.257E-03
   4 F= -.16108605E+03 E0= -.16107712E+03  d E =-.616283E-03
       N       E                     dE             d eps       ncg     rms          rms(c)
DAV:   1    -0.161086459776E+03   -0.40744E-03   -0.35430E-02 31366   0.597E-01    0.333E-02
RMM:   2    -0.161086606585E+03   -0.14681E-03   -0.18012E-03 29512   0.195E-01    0.413E-03
RMM:   3    -0.161086618969E+03   -0.12385E-04   -0.12443E-04 33476   0.438E-02    0.367E-03
RMM:   4    -0.161086620282E+03   -0.13126E-05   -0.71283E-06 25123   0.111E-02    0.476E-03
RMM:   5    -0.161086620064E+03    0.21856E-06   -0.75427E-07 17817   0.430E-03
   5 F= -.16108662E+03 E0= -.16107767E+03  d E =-.118406E-02
       N       E                     dE             d eps       ncg     rms          rms(c)
DAV:   1    -0.161086619325E+03    0.95663E-06   -0.20212E-06 22776   0.511E-03    0.276E-03
RMM:   2    -0.161086618863E+03    0.46235E-06   -0.10138E-06 15700   0.293E-03    0.130E-03
RMM:   3    -0.161086619049E+03   -0.18540E-06   -0.14977E-07 15106   0.186E-03    0.160E-03
RMM:   4    -0.161086618954E+03    0.94638E-07   -0.20051E-07 12344   0.188E-03
   6 F= -.16108662E+03 E0= -.16107767E+03  d E =-.118295E-02
       N       E                     dE             d eps       ncg     rms          rms(c)
DAV:   1    -0.161086618853E+03    0.19519E-06   -0.46325E-07 18040   0.191E-03    0.150E-04
RMM:   2    -0.161086618922E+03   -0.68461E-07   -0.90044E-08 13638   0.155E-03    0.363E-04
RMM:   3    -0.161086618882E+03    0.39992E-07   -0.25128E-08  8529   0.978E-04    0.881E-05
RMM:   4    -0.161086618876E+03    0.55168E-08   -0.18172E-09  1990   0.595E-04
   7 F= -.16108662E+03 E0= -.16107767E+03  d E =-.118287E-02
       N       E                     dE             d eps       ncg     rms          rms(c)
DAV:   1    -0.161086623726E+03   -0.48439E-05   -0.13597E-04 31366   0.368E-02    0.228E-03
RMM:   2    -0.161086628360E+03   -0.46343E-05   -0.29761E-05 29528   0.203E-02    0.101E-02
RMM:   3    -0.161086624118E+03    0.42424E-05   -0.44929E-06 24256   0.815E-03    0.621E-03
RMM:   4    -0.161086623924E+03    0.19355E-06   -0.21902E-06 15829   0.476E-03
   8 F= -.16108662E+03 E0= -.16107768E+03  d E =-.504773E-05
       N       E                     dE             d eps       ncg     rms          rms(c)
DAV:   1    -0.161086626315E+03   -0.21977E-05   -0.23211E-04 31390   0.481E-02    0.332E-03
RMM:   2    -0.161086628291E+03   -0.19756E-05   -0.12951E-05 29371   0.150E-02    0.576E-03
RMM:   3    -0.161086626256E+03    0.20353E-05   -0.25010E-06 19115   0.653E-03    0.266E-03
RMM:   4    -0.161086626354E+03   -0.98505E-07   -0.44465E-07 15828   0.284E-03
   9 F= -.16108663E+03 E0= -.16107768E+03  d E =-.747782E-05
       N       E                     dE             d eps       ncg     rms          rms(c)
DAV:   1    -0.161086626369E+03   -0.11311E-06   -0.24990E-06 24868   0.544E-03    0.205E-03
RMM:   2    -0.161086626075E+03    0.29346E-06   -0.60940E-07 15206   0.279E-03    0.751E-04
RMM:   3    -0.161086626084E+03   -0.92739E-08   -0.15770E-07 10766   0.134E-03    0.646E-04
RMM:   4    -0.161086626094E+03   -0.98761E-08   -0.62528E-08  8763   0.117E-03
  10 F= -.16108663E+03 E0= -.16107768E+03  d E =-.721811E-05
       N       E                     dE             d eps       ncg     rms          rms(c)
DAV:   1    -0.161086626087E+03   -0.24270E-08   -0.36810E-07 17858   0.199E-03    0.260E-04
RMM:   2    -0.161086626077E+03    0.95448E-08   -0.26334E-08  6416   0.798E-04    0.833E-05
RMM:   3    -0.161086626053E+03    0.24118E-07   -0.12253E-08  3154   0.717E-04    0.833E-05
RMM:   4    -0.161086626062E+03   -0.86079E-08   -0.35472E-09  2118   0.691E-04
  11 F= -.16108663E+03 E0= -.16107768E+03  d E =-.718561E-05
       N       E                     dE             d eps       ncg     rms          rms(c)
DAV:   1    -0.161086626087E+03   -0.33746E-07   -0.42450E-08 17378   0.675E-04    0.197E-04
RMM:   2    -0.161086626088E+03   -0.94303E-09   -0.15778E-12  1647   0.385E-04    0.142E-04
RMM:   3    -0.161086626083E+03    0.46465E-08   -0.38551E-28   633   0.374E-04    0.144E-04
RMM:   4    -0.161086626086E+03   -0.30838E-08   -0.20721E-12   664   0.445E-04
  12 F= -.16108663E+03 E0= -.16107768E+03  d E =-.721013E-05
       N       E                     dE             d eps       ncg     rms          rms(c)
DAV:   1    -0.161086626092E+03   -0.90880E-08   -0.18174E-08 16328   0.579E-04    0.613E-05
RMM:   2    -0.161086626111E+03   -0.18970E-07   -0.57659E-29   711   0.207E-04    0.477E-05
RMM:   3    -0.161086626121E+03   -0.91442E-08    0.00000E+00   443   0.217E-04    0.378E-05
RMM:   4    -0.161086626126E+03   -0.55799E-08   -0.32520E-29   358   0.229E-04
  13 F= -.16108663E+03 E0= -.16107768E+03  d E =-.724983E-05
       N       E                     dE             d eps       ncg     rms          rms(c)
DAV:   1    -0.161086626127E+03   -0.61034E-08   -0.54228E-09 16412   0.297E-04    0.308E-05
RMM:   2    -0.161086626124E+03    0.21235E-08   -0.15549E-29   606   0.209E-04    0.246E-05
RMM:   3    -0.161086626118E+03    0.63174E-08    0.00000E+00   373   0.193E-04    0.144E-05
RMM:   4    -0.161086626116E+03    0.17784E-08    0.00000E+00   317   0.169E-04
  14 F= -.16108663E+03 E0= -.16107768E+03  d E =-.724013E-05
       N       E                     dE             d eps       ncg     rms          rms(c)
DAV:   1    -0.161086626116E+03    0.21605E-08   -0.14985E-09 15740   0.171E-04    0.331E-05
RMM:   2    -0.161086626118E+03   -0.21436E-08    0.00000E+00   528   0.978E-05    0.264E-05
RMM:   3    -0.161086626115E+03    0.31902E-08    0.00000E+00   310   0.136E-04    0.161E-05
RMM:   4    -0.161086626115E+03   -0.38904E-09    0.00000E+00   251   0.161E-04
  15 F= -.16108663E+03 E0= -.16107768E+03  d E =-.723909E-05
       N       E                     dE             d eps       ncg     rms          rms(c)
DAV:   1    -0.161086626116E+03   -0.83031E-09   -0.12416E-09 15890   0.188E-04    0.283E-05
RMM:   2    -0.161086626115E+03    0.70787E-09    0.00000E+00   493   0.938E-05    0.184E-05
RMM:   3    -0.161086626114E+03    0.11064E-08    0.00000E+00   271   0.113E-04    0.140E-05
RMM:   4    -0.161086626114E+03    0.43968E-09    0.00000E+00   228   0.141E-04
  16 F= -.16108663E+03 E0= -.16107768E+03  d E =-.723728E-05
       N       E                     dE             d eps       ncg     rms          rms(c)
DAV:   1    -0.161086626113E+03    0.74118E-09   -0.82177E-10 15584   0.157E-04    0.231E-05
RMM:   2    -0.161086626115E+03   -0.18387E-08    0.00000E+00   445   0.873E-05    0.110E-05
RMM:   3    -0.161086626117E+03   -0.16653E-08    0.00000E+00   225   0.108E-04    0.663E-06
RMM:   4    -0.161086626116E+03    0.58242E-09    0.00000E+00   194   0.131E-04
  17 F= -.16108663E+03 E0= -.16107768E+03  d E =-.723990E-05
       N       E                     dE             d eps       ncg     rms          rms(c)
DAV:   1    -0.161086626117E+03   -0.48772E-10   -0.70193E-10 15746   0.140E-04    0.271E-05
RMM:   2    -0.161086626115E+03    0.19969E-08    0.00000E+00   431   0.113E-04    0.970E-06
RMM:   3    -0.161086626115E+03    0.11221E-09    0.00000E+00   202   0.135E-04    0.546E-06
RMM:   4    -0.161086626113E+03    0.16041E-08    0.00000E+00   182   0.151E-04
  18 F= -.16108663E+03 E0= -.16107768E+03  d E =-.723682E-05
       N       E                     dE             d eps       ncg     rms          rms(c)
DAV:   1    -0.161086626113E+03    0.12054E-08   -0.90065E-10 15458   0.158E-04    0.310E-05
RMM:   2    -0.161086626118E+03   -0.46685E-08    0.00000E+00   398   0.173E-04    0.199E-06
RMM:   3    -0.161086626118E+03    0.94190E-10    0.00000E+00   186   0.182E-04    0.376E-07
RMM:   4    -0.161086626118E+03   -0.14165E-09    0.00000E+00   159   0.183E-04
  19 F= -.16108663E+03 E0= -.16107768E+03  d E =-.724193E-05
       N       E                     dE             d eps       ncg     rms          rms(c)
DAV:   1    -0.161086626117E+03    0.70759E-09   -0.11921E-09 15638   0.182E-04    0.368E-05
RMM:   2    -0.161086626113E+03    0.38438E-08    0.00000E+00   372   0.202E-04    0.249E-06
RMM:   3    -0.161086626114E+03   -0.24329E-10    0.00000E+00   167   0.208E-04    0.148E-06
RMM:   4    -0.161086626113E+03    0.70423E-09    0.00000E+00   144   0.208E-04
  20 F= -.16108663E+03 E0= -.16107768E+03  d E =-.723656E-05
       N       E                     dE             d eps       ncg     rms          rms(c)
DAV:   1    -0.161086626113E+03    0.48220E-09   -0.15922E-09 15464   0.211E-04    0.423E-05
RMM:   2    -0.161086626118E+03   -0.50691E-08    0.00000E+00   335   0.247E-04    0.990E-07
RMM:   3    -0.161086626118E+03    0.20310E-09    0.00000E+00   144   0.248E-04    0.756E-07
RMM:   4    -0.161086626118E+03   -0.21379E-09    0.00000E+00   131   0.246E-04
  21 F= -.16108663E+03 E0= -.16107768E+03  d E =-.724186E-05
       N       E                     dE             d eps       ncg     rms          rms(c)
DAV:   1    -0.161086626119E+03   -0.11043E-08   -0.21361E-09 15458   0.244E-04    0.497E-05
RMM:   2    -0.161086626111E+03    0.77325E-08    0.00000E+00   325   0.284E-04    0.577E-07
RMM:   3    -0.161086626111E+03    0.28422E-11    0.00000E+00   143   0.285E-04    0.110E-07
RMM:   4    -0.161086626111E+03    0.44622E-10    0.00000E+00   124   0.286E-04
  22 F= -.16108663E+03 E0= -.16107768E+03  d E =-.723497E-05
       N       E                     dE             d eps       ncg     rms          rms(c)
DAV:   1    -0.161086626112E+03   -0.79660E-09   -0.29335E-09 15338   0.286E-04    0.582E-05
RMM:   2    -0.161086626119E+03   -0.69814E-08    0.00000E+00   303   0.333E-04    0.368E-07
RMM:   3    -0.161086626120E+03   -0.11736E-08    0.00000E+00   129   0.334E-04    0.142E-07
RMM:   4    -0.161086626119E+03    0.74363E-09    0.00000E+00   114   0.335E-04
  23 F= -.16108663E+03 E0= -.16107768E+03  d E =-.724322E-05
       N       E                     dE             d eps       ncg     rms          rms(c)
DAV:   1    -0.161086626120E+03    0.32935E-09   -0.40240E-09 15296   0.335E-04    0.681E-05
RMM:   2    -0.161086626110E+03    0.96531E-08    0.00000E+00   286   0.391E-04    0.174E-07
RMM:   3    -0.161086626110E+03   -0.18940E-09    0.00000E+00   131   0.392E-04    0.103E-08
RMM:   4    -0.161086626110E+03    0.79581E-09    0.00000E+00   111   0.392E-04
  24 F= -.16108663E+03 E0= -.16107768E+03  d E =-.723338E-05
       N       E                     dE             d eps       ncg     rms          rms(c)
DAV:   1    -0.161086626110E+03    0.21191E-09   -0.55108E-09 15278   0.392E-04    0.797E-05
RMM:   2    -0.161086626121E+03   -0.11270E-07    0.00000E+00   281   0.459E-04    0.647E-08
RMM:   3    -0.161086626121E+03    0.36727E-09    0.00000E+00   119   0.459E-04    0.131E-08
RMM:   4    -0.161086626121E+03    0.87368E-10    0.00000E+00   104   0.459E-04
  25 F= -.16108663E+03 E0= -.16107768E+03  d E =-.724478E-05
       N       E                     dE             d eps       ncg     rms          rms(c)
DAV:   1    -0.161086617721E+03    0.83998E-05   -0.65326E-04 29776   0.806E-02    0.494E-03
RMM:   2    -0.161086619032E+03   -0.13111E-05   -0.23368E-05 29585   0.208E-02    0.205E-03
RMM:   3    -0.161086618968E+03    0.64614E-07   -0.62512E-06 23940   0.979E-03    0.251E-03
RMM:   4    -0.161086621234E+03   -0.22657E-05   -0.24360E-05 29309   0.203E-02    0.629E-03
RMM:   5    -0.161086620579E+03    0.65455E-06   -0.39476E-05 29511   0.262E-02    0.547E-03
RMM:   6    -0.161086620138E+03    0.44124E-06   -0.24511E-05 28569   0.220E-02    0.417E-03
RMM:   7    -0.161086618875E+03    0.12623E-05   -0.61684E-06 24128   0.121E-02    0.924E-04
RMM:   8    -0.161086619008E+03   -0.13245E-06   -0.45051E-07 15409   0.414E-03
  26 F= -.16108662E+03 E0= -.16107767E+03  d E =-.131665E-06
