AlO                                     
           1
     4.762646    0.000000    0.000000
     0.000000    8.195780   -0.082786
     0.000000   -0.085653    8.565251
   Ti   Si
   8  16
Direct configuration=     1
   0.00000000  0.00000000  0.00000000
   0.75000000  0.75000000  0.25000000
   0.00000000  0.50000000  0.50000000
   0.75000000  0.25000000  0.75000000
   0.50000000  0.00000000  0.50000000
   0.25000000  0.75000000  0.75000000
   0.50000000  0.50000000  0.00000000
   0.25000000  0.25000000  0.25000000
   0.00000000  0.33673444  0.00000000
   0.00000000  0.66326559  0.00000000
   0.75000000  0.08673443  0.25000000
   0.75000000  0.41326556  0.25000000
   0.00000000  0.83673441  0.50000000
   0.00000000  0.16326557  0.50000000
   0.75000000  0.58673441  0.75000000
   0.75000000  0.91326559  0.75000000
   0.50000000  0.33673444  0.50000000
   0.50000000  0.66326559  0.50000000
   0.25000000  0.08673443  0.75000000
   0.25000000  0.41326556  0.75000000
   0.50000000  0.83673441  0.00000000
   0.50000000  0.16326557  0.00000000
   0.25000000  0.58673441  0.25000000
   0.25000000  0.91326559  0.25000000
Direct configuration=     2
   0.00083206 -0.00000000 -0.00000000
   0.74916794  0.75000000  0.25000000
   0.00083206  0.50000000  0.50000000
   0.74916794  0.25000000  0.75000000
   0.50083206 -0.00000000  0.50000000
   0.24916794  0.75000000  0.75000000
   0.50083206  0.50000000 -0.00000000
   0.24916794  0.25000000  0.25000000
   0.00030844  0.33676484  0.00021909
   0.00030844  0.66323519 -0.00021909
   0.74969156  0.08676483  0.25021909
   0.74969156  0.41323516  0.24978091
   0.00030844  0.83676481  0.50021909
   0.00030844  0.16323517  0.49978091
   0.74969156  0.58676481  0.75021909
   0.74969156  0.91323519  0.74978091
   0.50030844  0.33676484  0.50021909
   0.50030844  0.66323519  0.49978091
   0.24969156  0.08676483  0.75021909
   0.24969156  0.41323516  0.74978091
   0.50030844  0.83676481  0.00021909
   0.50030844  0.16323517 -0.00021909
   0.24969156  0.58676481  0.25021909
   0.24969156  0.91323519  0.24978091
Direct configuration=     3
   0.00166608 -0.00000000 -0.00000000
   0.74833392  0.75000000  0.25000000
   0.00166608  0.50000000  0.50000000
   0.74833392  0.25000000  0.75000000
   0.50166608 -0.00000000  0.50000000
   0.24833392  0.75000000  0.75000000
   0.50166608  0.50000000 -0.00000000
   0.24833392  0.25000000  0.25000000
   0.00061761  0.33679531  0.00043870
   0.00061761  0.66320472 -0.00043870
   0.74938239  0.08679530  0.25043870
   0.74938239  0.41320469  0.24956130
   0.00061761  0.83679528  0.50043870
   0.00061761  0.16320470  0.49956130
   0.74938239  0.58679528  0.75043870
   0.74938239  0.91320472  0.74956130
   0.50061761  0.33679531  0.50043870
   0.50061761  0.66320472  0.49956130
   0.24938239  0.08679530  0.75043870
   0.24938239  0.41320469  0.74956130
   0.50061761  0.83679528  0.00043870
   0.50061761  0.16320470 -0.00043870
   0.24938239  0.58679528  0.25043870
   0.24938239  0.91320472  0.24956130
Direct configuration=     4
   0.00163958 -0.00000000  0.00000000
   0.74836042  0.75000000  0.25000000
   0.00163958  0.50000000  0.50000000
   0.74836042  0.25000000  0.75000000
   0.50163958 -0.00000000  0.50000000
   0.24836042  0.75000000  0.75000000
   0.50163958  0.50000000  0.00000000
   0.24836042  0.25000000  0.25000000
   0.00088474  0.33682068  0.00041700
   0.00088474  0.66317935 -0.00041700
   0.74911526  0.08682066  0.25041700
   0.74911526  0.41317932  0.24958300
   0.00088474  0.83682065  0.50041700
   0.00088474  0.16317934  0.49958300
   0.74911526  0.58682065  0.75041700
   0.74911526  0.91317935  0.74958300
   0.50088474  0.33682068  0.50041700
   0.50088474  0.66317935  0.49958300
   0.24911526  0.08682066  0.75041700
   0.24911526  0.41317932  0.74958300
   0.50088474  0.83682065  0.00041700
   0.50088474  0.16317934 -0.00041700
   0.24911526  0.58682065  0.25041700
   0.24911526  0.91317935  0.24958300
Direct configuration=     5
   0.00157995 -0.00000000  0.00000000
   0.74842005  0.75000000  0.25000000
   0.00157995  0.50000000  0.50000000
   0.74842005  0.25000000  0.75000000
   0.50157995 -0.00000000  0.50000000
   0.24842005  0.75000000  0.75000000
   0.50157995  0.50000000  0.00000000
   0.24842005  0.25000000  0.25000000
   0.00148582  0.33687776  0.00036817
   0.00148582  0.66312227 -0.00036817
   0.74851418  0.08687774  0.25036817
   0.74851418  0.41312224  0.24963183
   0.00148582  0.83687773  0.50036817
   0.00148582  0.16312226  0.49963183
   0.74851418  0.58687773  0.75036817
   0.74851418  0.91312227  0.74963183
   0.50148582  0.33687776  0.50036817
   0.50148582  0.66312227  0.49963183
   0.24851418  0.08687774  0.75036817
   0.24851418  0.41312224  0.74963183
   0.50148582  0.83687773  0.00036817
   0.50148582  0.16312226 -0.00036817
   0.24851418  0.58687773  0.25036817
   0.24851418  0.91312227  0.24963183
Direct configuration=     6
   0.00158031 -0.00000000  0.00000000
   0.74841969  0.75000000  0.25000000
   0.00158031  0.50000000  0.50000000
   0.74841969  0.25000000  0.75000000
   0.50158031 -0.00000000  0.50000000
   0.24841969  0.75000000  0.75000000
   0.50158031  0.50000000  0.00000000
   0.24841969  0.25000000  0.25000000
   0.00148229  0.33687742  0.00036846
   0.00148229  0.66312261 -0.00036846
   0.74851771  0.08687741  0.25036846
   0.74851771  0.41312258  0.24963154
   0.00148229  0.83687739  0.50036846
   0.00148229  0.16312259  0.49963154
   0.74851771  0.58687739  0.75036846
   0.74851771  0.91312261  0.74963154
   0.50148229  0.33687742  0.50036846
   0.50148229  0.66312261  0.49963154
   0.24851771  0.08687741  0.75036846
   0.24851771  0.41312258  0.74963154
   0.50148229  0.83687739  0.00036846
   0.50148229  0.16312259 -0.00036846
   0.24851771  0.58687739  0.25036846
   0.24851771  0.91312261  0.24963154
Direct configuration=     7
   0.00158018 -0.00000000  0.00000000
   0.74841982  0.75000000  0.25000000
   0.00158018  0.50000000  0.50000000
   0.74841982  0.25000000  0.75000000
   0.50158018 -0.00000000  0.50000000
   0.24841982  0.75000000  0.75000000
   0.50158018  0.50000000  0.00000000
   0.24841982  0.25000000  0.25000000
   0.00148353  0.33687754  0.00036836
   0.00148353  0.66312249 -0.00036836
   0.74851647  0.08687753  0.25036836
   0.74851647  0.41312246  0.24963164
   0.00148353  0.83687751  0.50036836
   0.00148353  0.16312247  0.49963164
   0.74851647  0.58687751  0.75036836
   0.74851647  0.91312249  0.74963164
   0.50148353  0.33687754  0.50036836
   0.50148353  0.66312249  0.49963164
   0.24851647  0.08687753  0.75036836
   0.24851647  0.41312246  0.74963164
   0.50148353  0.83687751  0.00036836
   0.50148353  0.16312247 -0.00036836
   0.24851647  0.58687751  0.25036836
   0.24851647  0.91312249  0.24963164
Direct configuration=     8
   0.00160443 -0.00000000  0.00000000
   0.74839557  0.75000000  0.25000000
   0.00160443  0.50000000  0.50000000
   0.74839557  0.25000000  0.75000000
   0.50160443 -0.00000000  0.50000000
   0.24839557  0.75000000  0.75000000
   0.50160443  0.50000000  0.00000000
   0.24839557  0.25000000  0.25000000
   0.00148241  0.33688488  0.00035622
   0.00148241  0.66311515 -0.00035622
   0.74851759  0.08688486  0.25035622
   0.74851759  0.41311512  0.24964378
   0.00148241  0.83688485  0.50035622
   0.00148241  0.16311514  0.49964378
   0.74851759  0.58688485  0.75035622
   0.74851759  0.91311515  0.74964378
   0.50148241  0.33688488  0.50035622
   0.50148241  0.66311515  0.49964378
   0.24851759  0.08688486  0.75035622
   0.24851759  0.41311512  0.74964378
   0.50148241  0.83688485  0.00035622
   0.50148241  0.16311514 -0.00035622
   0.24851759  0.58688485  0.25035622
   0.24851759  0.91311515  0.24964378
Direct configuration=     9
   0.00163530 -0.00000000  0.00000000
   0.74836470  0.75000000  0.25000000
   0.00163530  0.50000000  0.50000000
   0.74836470  0.25000000  0.75000000
   0.50163530 -0.00000000  0.50000000
   0.24836470  0.75000000  0.75000000
   0.50163530  0.50000000  0.00000000
   0.24836470  0.25000000  0.25000000
   0.00148099  0.33689422  0.00034077
   0.00148099  0.66310581 -0.00034077
   0.74851901  0.08689420  0.25034077
   0.74851901  0.41310578  0.24965923
   0.00148099  0.83689419  0.50034077
   0.00148099  0.16310580  0.49965923
   0.74851901  0.58689419  0.75034077
   0.74851901  0.91310581  0.74965923
   0.50148099  0.33689422  0.50034077
   0.50148099  0.66310581  0.49965923
   0.24851901  0.08689420  0.75034077
   0.24851901  0.41310578  0.74965923
   0.50148099  0.83689419  0.00034077
   0.50148099  0.16310580 -0.00034077
   0.24851901  0.58689419  0.25034077
   0.24851901  0.91310581  0.24965923
Direct configuration=    10
   0.00163209 -0.00000000  0.00000000
   0.74836791  0.75000000  0.25000000
   0.00163209  0.50000000  0.50000000
   0.74836791  0.25000000  0.75000000
   0.50163209 -0.00000000  0.50000000
   0.24836791  0.75000000  0.75000000
   0.50163209  0.50000000  0.00000000
   0.24836791  0.25000000  0.25000000
   0.00148114  0.33689325  0.00034237
   0.00148114  0.66310678 -0.00034237
   0.74851886  0.08689323  0.25034237
   0.74851886  0.41310675  0.24965763
   0.00148114  0.83689322  0.50034237
   0.00148114  0.16310677  0.49965763
   0.74851886  0.58689322  0.75034237
   0.74851886  0.91310678  0.74965763
   0.50148114  0.33689325  0.50034237
   0.50148114  0.66310678  0.49965763
   0.24851886  0.08689323  0.75034237
   0.24851886  0.41310675  0.74965763
   0.50148114  0.83689322  0.00034237
   0.50148114  0.16310677 -0.00034237
   0.24851886  0.58689322  0.25034237
   0.24851886  0.91310678  0.24965763
Direct configuration=    11
   0.00163334 -0.00000000  0.00000000
   0.74836666  0.75000000  0.25000000
   0.00163334  0.50000000  0.50000000
   0.74836666  0.25000000  0.75000000
   0.50163334 -0.00000000  0.50000000
   0.24836666  0.75000000  0.75000000
   0.50163334  0.50000000  0.00000000
   0.24836666  0.25000000  0.25000000
   0.00148108  0.33689363  0.00034175
   0.00148108  0.66310640 -0.00034175
   0.74851892  0.08689361  0.25034175
   0.74851892  0.41310637  0.24965825
   0.00148108  0.83689360  0.50034175
   0.00148108  0.16310639  0.49965825
   0.74851892  0.58689360  0.75034175
   0.74851892  0.91310640  0.74965825
   0.50148108  0.33689363  0.50034175
   0.50148108  0.66310640  0.49965825
   0.24851892  0.08689361  0.75034175
   0.24851892  0.41310637  0.74965825
   0.50148108  0.83689360  0.00034175
   0.50148108  0.16310639 -0.00034175
   0.24851892  0.58689360  0.25034175
   0.24851892  0.91310640  0.24965825
Direct configuration=    12
   0.00163311 -0.00000000  0.00000000
   0.74836689  0.75000000  0.25000000
   0.00163311  0.50000000  0.50000000
   0.74836689  0.25000000  0.75000000
   0.50163311 -0.00000000  0.50000000
   0.24836689  0.75000000  0.75000000
   0.50163311  0.50000000  0.00000000
   0.24836689  0.25000000  0.25000000
   0.00148109  0.33689356  0.00034186
   0.00148109  0.66310647 -0.00034186
   0.74851891  0.08689354  0.25034186
   0.74851891  0.41310644  0.24965814
   0.00148109  0.83689353  0.50034186
   0.00148109  0.16310646  0.49965814
   0.74851891  0.58689353  0.75034186
   0.74851891  0.91310647  0.74965814
   0.50148109  0.33689356  0.50034186
   0.50148109  0.66310647  0.49965814
   0.24851891  0.08689354  0.75034186
   0.24851891  0.41310644  0.74965814
   0.50148109  0.83689353  0.00034186
   0.50148109  0.16310646 -0.00034186
   0.24851891  0.58689353  0.25034186
   0.24851891  0.91310647  0.24965814
Direct configuration=    13
   0.00163321 -0.00000000  0.00000000
   0.74836679  0.75000000  0.25000000
   0.00163321  0.50000000  0.50000000
   0.74836679  0.25000000  0.75000000
   0.50163321 -0.00000000  0.50000000
   0.24836679  0.75000000  0.75000000
   0.50163321  0.50000000  0.00000000
   0.24836679  0.25000000  0.25000000
   0.00148108  0.33689358  0.00034182
   0.00148108  0.66310645 -0.00034182
   0.74851892  0.08689357  0.25034182
   0.74851892  0.41310642  0.24965818
   0.00148108  0.83689355  0.50034182
   0.00148108  0.16310643  0.49965818
   0.74851892  0.58689355  0.75034182
   0.74851892  0.91310645  0.74965818
   0.50148108  0.33689358  0.50034182
   0.50148108  0.66310645  0.49965818
   0.24851892  0.08689357  0.75034182
   0.24851892  0.41310642  0.74965818
   0.50148108  0.83689355  0.00034182
   0.50148108  0.16310643 -0.00034182
   0.24851892  0.58689355  0.25034182
   0.24851892  0.91310645  0.24965818
Direct configuration=    14
   0.00163327 -0.00000000  0.00000000
   0.74836673  0.75000000  0.25000000
   0.00163327  0.50000000  0.50000000
   0.74836673  0.25000000  0.75000000
   0.50163327 -0.00000000  0.50000000
   0.24836673  0.75000000  0.75000000
   0.50163327  0.50000000  0.00000000
   0.24836673  0.25000000  0.25000000
   0.00148108  0.33689361  0.00034178
   0.00148108  0.66310642 -0.00034178
   0.74851892  0.08689359  0.25034178
   0.74851892  0.41310639  0.24965822
   0.00148108  0.83689358  0.50034178
   0.00148108  0.16310641  0.49965822
   0.74851892  0.58689358  0.75034178
   0.74851892  0.91310642  0.74965822
   0.50148108  0.33689361  0.50034178
   0.50148108  0.66310642  0.49965822
   0.24851892  0.08689359  0.75034178
   0.24851892  0.41310639  0.74965822
   0.50148108  0.83689358  0.00034178
   0.50148108  0.16310641 -0.00034178
   0.24851892  0.58689358  0.25034178
   0.24851892  0.91310642  0.24965822
Direct configuration=    15
   0.00163331 -0.00000000  0.00000000
   0.74836669  0.75000000  0.25000000
   0.00163331  0.50000000  0.50000000
   0.74836669  0.25000000  0.75000000
   0.50163331 -0.00000000  0.50000000
   0.24836669  0.75000000  0.75000000
   0.50163331  0.50000000  0.00000000
   0.24836669  0.25000000  0.25000000
   0.00148108  0.33689362  0.00034177
   0.00148108  0.66310641 -0.00034177
   0.74851892  0.08689360  0.25034177
   0.74851892  0.41310638  0.24965823
   0.00148108  0.83689359  0.50034177
   0.00148108  0.16310640  0.49965823
   0.74851892  0.58689359  0.75034177
   0.74851892  0.91310641  0.74965823
   0.50148108  0.33689362  0.50034177
   0.50148108  0.66310641  0.49965823
   0.24851892  0.08689360  0.75034177
   0.24851892  0.41310638  0.74965823
   0.50148108  0.83689359  0.00034177
   0.50148108  0.16310640 -0.00034177
   0.24851892  0.58689359  0.25034177
   0.24851892  0.91310641  0.24965823
Direct configuration=    16
   0.00163332 -0.00000000  0.00000000
   0.74836668  0.75000000  0.25000000
   0.00163332  0.50000000  0.50000000
   0.74836668  0.25000000  0.75000000
   0.50163332 -0.00000000  0.50000000
   0.24836668  0.75000000  0.75000000
   0.50163332  0.50000000  0.00000000
   0.24836668  0.25000000  0.25000000
   0.00148108  0.33689362  0.00034176
   0.00148108  0.66310641 -0.00034176
   0.74851892  0.08689361  0.25034176
   0.74851892  0.41310638  0.24965824
   0.00148108  0.83689359  0.50034176
   0.00148108  0.16310639  0.49965824
   0.74851892  0.58689359  0.75034176
   0.74851892  0.91310641  0.74965824
   0.50148108  0.33689362  0.50034176
   0.50148108  0.66310641  0.49965824
   0.24851892  0.08689361  0.75034176
   0.24851892  0.41310638  0.74965824
   0.50148108  0.83689359  0.00034176
   0.50148108  0.16310639 -0.00034176
   0.24851892  0.58689359  0.25034176
   0.24851892  0.91310641  0.24965824
Direct configuration=    17
   0.00163333 -0.00000000  0.00000000
   0.74836667  0.75000000  0.25000000
   0.00163333  0.50000000  0.50000000
   0.74836667  0.25000000  0.75000000
   0.50163333 -0.00000000  0.50000000
   0.24836667  0.75000000  0.75000000
   0.50163333  0.50000000  0.00000000
   0.24836667  0.25000000  0.25000000
   0.00148108  0.33689362  0.00034175
   0.00148108  0.66310641 -0.00034175
   0.74851892  0.08689361  0.25034175
   0.74851892  0.41310638  0.24965825
   0.00148108  0.83689359  0.50034175
   0.00148108  0.16310639  0.49965825
   0.74851892  0.58689359  0.75034175
   0.74851892  0.91310641  0.74965825
   0.50148108  0.33689362  0.50034175
   0.50148108  0.66310641  0.49965825
   0.24851892  0.08689361  0.75034175
   0.24851892  0.41310638  0.74965825
   0.50148108  0.83689359  0.00034175
   0.50148108  0.16310639 -0.00034175
   0.24851892  0.58689359  0.25034175
   0.24851892  0.91310641  0.24965825
Direct configuration=    18
   0.00163334 -0.00000000  0.00000000
   0.74836666  0.75000000  0.25000000
   0.00163334  0.50000000  0.50000000
   0.74836666  0.25000000  0.75000000
   0.50163334 -0.00000000  0.50000000
   0.24836666  0.75000000  0.75000000
   0.50163334  0.50000000  0.00000000
   0.24836666  0.25000000  0.25000000
   0.00148108  0.33689362  0.00034175
   0.00148108  0.66310641 -0.00034175
   0.74851892  0.08689361  0.25034175
   0.74851892  0.41310638  0.24965825
   0.00148108  0.83689359  0.50034175
   0.00148108  0.16310639  0.49965825
   0.74851892  0.58689359  0.75034175
   0.74851892  0.91310641  0.74965825
   0.50148108  0.33689362  0.50034175
   0.50148108  0.66310641  0.49965825
   0.24851892  0.08689361  0.75034175
   0.24851892  0.41310638  0.74965825
   0.50148108  0.83689359  0.00034175
   0.50148108  0.16310639 -0.00034175
   0.24851892  0.58689359  0.25034175
   0.24851892  0.91310641  0.24965825
Direct configuration=    19
   0.00163334 -0.00000000  0.00000000
   0.74836666  0.75000000  0.25000000
   0.00163334  0.50000000  0.50000000
   0.74836666  0.25000000  0.75000000
   0.50163334 -0.00000000  0.50000000
   0.24836666  0.75000000  0.75000000
   0.50163334  0.50000000  0.00000000
   0.24836666  0.25000000  0.25000000
   0.00148108  0.33689362  0.00034175
   0.00148108  0.66310641 -0.00034175
   0.74851892  0.08689361  0.25034175
   0.74851892  0.41310638  0.24965825
   0.00148108  0.83689359  0.50034175
   0.00148108  0.16310639  0.49965825
   0.74851892  0.58689359  0.75034175
   0.74851892  0.91310641  0.74965825
   0.50148108  0.33689362  0.50034175
   0.50148108  0.66310641  0.49965825
   0.24851892  0.08689361  0.75034175
   0.24851892  0.41310638  0.74965825
   0.50148108  0.83689359  0.00034175
   0.50148108  0.16310639 -0.00034175
   0.24851892  0.58689359  0.25034175
   0.24851892  0.91310641  0.24965825
Direct configuration=    20
   0.00163334 -0.00000000  0.00000000
   0.74836666  0.75000000  0.25000000
   0.00163334  0.50000000  0.50000000
   0.74836666  0.25000000  0.75000000
   0.50163334 -0.00000000  0.50000000
   0.24836666  0.75000000  0.75000000
   0.50163334  0.50000000  0.00000000
   0.24836666  0.25000000  0.25000000
   0.00148108  0.33689363  0.00034175
   0.00148108  0.66310640 -0.00034175
   0.74851892  0.08689361  0.25034175
   0.74851892  0.41310637  0.24965825
   0.00148108  0.83689360  0.50034175
   0.00148108  0.16310639  0.49965825
   0.74851892  0.58689360  0.75034175
   0.74851892  0.91310640  0.74965825
   0.50148108  0.33689363  0.50034175
   0.50148108  0.66310640  0.49965825
   0.24851892  0.08689361  0.75034175
   0.24851892  0.41310637  0.74965825
   0.50148108  0.83689360  0.00034175
   0.50148108  0.16310639 -0.00034175
   0.24851892  0.58689360  0.25034175
   0.24851892  0.91310640  0.24965825
Direct configuration=    21
   0.00163334 -0.00000000  0.00000000
   0.74836666  0.75000000  0.25000000
   0.00163334  0.50000000  0.50000000
   0.74836666  0.25000000  0.75000000
   0.50163334 -0.00000000  0.50000000
   0.24836666  0.75000000  0.75000000
   0.50163334  0.50000000  0.00000000
   0.24836666  0.25000000  0.25000000
   0.00148108  0.33689363  0.00034175
   0.00148108  0.66310640 -0.00034175
   0.74851892  0.08689361  0.25034175
   0.74851892  0.41310637  0.24965825
   0.00148108  0.83689360  0.50034175
   0.00148108  0.16310639  0.49965825
   0.74851892  0.58689360  0.75034175
   0.74851892  0.91310640  0.74965825
   0.50148108  0.33689363  0.50034175
   0.50148108  0.66310640  0.49965825
   0.24851892  0.08689361  0.75034175
   0.24851892  0.41310637  0.74965825
   0.50148108  0.83689360  0.00034175
   0.50148108  0.16310639 -0.00034175
   0.24851892  0.58689360  0.25034175
   0.24851892  0.91310640  0.24965825
Direct configuration=    22
   0.00163334 -0.00000000  0.00000000
   0.74836666  0.75000000  0.25000000
   0.00163334  0.50000000  0.50000000
   0.74836666  0.25000000  0.75000000
   0.50163334 -0.00000000  0.50000000
   0.24836666  0.75000000  0.75000000
   0.50163334  0.50000000  0.00000000
   0.24836666  0.25000000  0.25000000
   0.00148108  0.33689363  0.00034175
   0.00148108  0.66310640 -0.00034175
   0.74851892  0.08689361  0.25034175
   0.74851892  0.41310637  0.24965825
   0.00148108  0.83689360  0.50034175
   0.00148108  0.16310639  0.49965825
   0.74851892  0.58689360  0.75034175
   0.74851892  0.91310640  0.74965825
   0.50148108  0.33689363  0.50034175
   0.50148108  0.66310640  0.49965825
   0.24851892  0.08689361  0.75034175
   0.24851892  0.41310637  0.74965825
   0.50148108  0.83689360  0.00034175
   0.50148108  0.16310639 -0.00034175
   0.24851892  0.58689360  0.25034175
   0.24851892  0.91310640  0.24965825
Direct configuration=    23
   0.00163334 -0.00000000  0.00000000
   0.74836666  0.75000000  0.25000000
   0.00163334  0.50000000  0.50000000
   0.74836666  0.25000000  0.75000000
   0.50163334 -0.00000000  0.50000000
   0.24836666  0.75000000  0.75000000
   0.50163334  0.50000000  0.00000000
   0.24836666  0.25000000  0.25000000
   0.00148108  0.33689363  0.00034175
   0.00148108  0.66310640 -0.00034175
   0.74851892  0.08689361  0.25034175
   0.74851892  0.41310637  0.24965825
   0.00148108  0.83689360  0.50034175
   0.00148108  0.16310639  0.49965825
   0.74851892  0.58689360  0.75034175
   0.74851892  0.91310640  0.74965825
   0.50148108  0.33689363  0.50034175
   0.50148108  0.66310640  0.49965825
   0.24851892  0.08689361  0.75034175
   0.24851892  0.41310637  0.74965825
   0.50148108  0.83689360  0.00034175
   0.50148108  0.16310639 -0.00034175
   0.24851892  0.58689360  0.25034175
   0.24851892  0.91310640  0.24965825
Direct configuration=    24
   0.00163334 -0.00000000  0.00000000
   0.74836666  0.75000000  0.25000000
   0.00163334  0.50000000  0.50000000
   0.74836666  0.25000000  0.75000000
   0.50163334 -0.00000000  0.50000000
   0.24836666  0.75000000  0.75000000
   0.50163334  0.50000000  0.00000000
   0.24836666  0.25000000  0.25000000
   0.00148108  0.33689363  0.00034175
   0.00148108  0.66310640 -0.00034175
   0.74851892  0.08689361  0.25034175
   0.74851892  0.41310637  0.24965825
   0.00148108  0.83689360  0.50034175
   0.00148108  0.16310639  0.49965825
   0.74851892  0.58689360  0.75034175
   0.74851892  0.91310640  0.74965825
   0.50148108  0.33689363  0.50034175
   0.50148108  0.66310640  0.49965825
   0.24851892  0.08689361  0.75034175
   0.24851892  0.41310637  0.74965825
   0.50148108  0.83689360  0.00034175
   0.50148108  0.16310639 -0.00034175
   0.24851892  0.58689360  0.25034175
   0.24851892  0.91310640  0.24965825
Direct configuration=    25
   0.00163334 -0.00000000  0.00000000
   0.74836666  0.75000000  0.25000000
   0.00163334  0.50000000  0.50000000
   0.74836666  0.25000000  0.75000000
   0.50163334 -0.00000000  0.50000000
   0.24836666  0.75000000  0.75000000
   0.50163334  0.50000000  0.00000000
   0.24836666  0.25000000  0.25000000
   0.00148108  0.33689363  0.00034175
   0.00148108  0.66310640 -0.00034175
   0.74851892  0.08689361  0.25034175
   0.74851892  0.41310637  0.24965825
   0.00148108  0.83689360  0.50034175
   0.00148108  0.16310639  0.49965825
   0.74851892  0.58689360  0.75034175
   0.74851892  0.91310640  0.74965825
   0.50148108  0.33689363  0.50034175
   0.50148108  0.66310640  0.49965825
   0.24851892  0.08689361  0.75034175
   0.24851892  0.41310637  0.74965825
   0.50148108  0.83689360  0.00034175
   0.50148108  0.16310639 -0.00034175
   0.24851892  0.58689360  0.25034175
   0.24851892  0.91310640  0.24965825
