       N       E                     dE             d eps       ncg     rms          rms(c)
DAV:   1     0.877509811606E+03    0.87751E+03   -0.83898E+04 23272   0.175E+03
DAV:   2    -0.196555774083E+03   -0.10741E+04   -0.10486E+04 28600   0.349E+02
DAV:   3    -0.250576248717E+03   -0.54020E+02   -0.53818E+02 27424   0.849E+01
DAV:   4    -0.251193405153E+03   -0.61716E+00   -0.61553E+00 27352   0.996E+00
DAV:   5    -0.251203392742E+03   -0.99876E-02   -0.99762E-02 27144   0.123E+00    0.297E+01
RMM:   6    -0.226554876157E+03    0.24649E+02   -0.11179E+02 23232   0.316E+01    0.797E+00
RMM:   7    -0.226471274525E+03    0.83602E-01   -0.24080E+00 23232   0.402E+00    0.543E+00
RMM:   8    -0.226504223089E+03   -0.32949E-01   -0.60253E-01 23232   0.387E+00    0.108E+00
RMM:   9    -0.226482632963E+03    0.21590E-01   -0.23203E-01 23232   0.145E+00    0.290E-01
RMM:  10    -0.226482800664E+03   -0.16770E-03   -0.48030E-03 23251   0.239E-01    0.260E-01
RMM:  11    -0.226481286364E+03    0.15143E-02   -0.90429E-03 23232   0.296E-01    0.268E-02
RMM:  12    -0.226481278522E+03    0.78423E-05   -0.73196E-05 23232   0.326E-02    0.682E-03
RMM:  13    -0.226481278432E+03    0.90228E-07   -0.45345E-06 18490   0.746E-03
   1 F= -.22648128E+03 E0= -.22648128E+03  d E =-.226481E+03
       N       E                     dE             d eps       ncg     rms          rms(c)
DAV:   1    -0.226483756666E+03   -0.24781E-02   -0.64651E-02 27096   0.100E+00    0.528E-02
RMM:   2    -0.226483934211E+03   -0.17755E-03   -0.20786E-03 23232   0.164E-01    0.319E-02
RMM:   3    -0.226483917484E+03    0.16726E-04   -0.51551E-05 23236   0.238E-02    0.287E-02
RMM:   4    -0.226483901379E+03    0.16106E-04   -0.10484E-04 23232   0.317E-02    0.388E-03
RMM:   5    -0.226483901360E+03    0.19241E-07   -0.18246E-06 13735   0.499E-03
   2 F= -.22648390E+03 E0= -.22648390E+03  d E =-.262293E-02
       N       E                     dE             d eps       ncg     rms          rms(c)
DAV:   1    -0.226484535026E+03   -0.63365E-03   -0.43927E-02 25584   0.825E-01    0.435E-02
RMM:   2    -0.226484634222E+03   -0.99195E-04   -0.12511E-03 23232   0.132E-01    0.345E-03
RMM:   3    -0.226484630121E+03    0.41010E-05   -0.17031E-05 22918   0.138E-02    0.139E-03
RMM:   4    -0.226484630233E+03   -0.11244E-06   -0.95788E-07 13747   0.347E-03
   3 F= -.22648463E+03 E0= -.22648463E+03  d E =-.335180E-02
       N       E                     dE             d eps       ncg     rms          rms(c)
DAV:   1    -0.226484632571E+03   -0.24503E-05   -0.14963E-04 26888   0.480E-02    0.247E-03
RMM:   2    -0.226484632912E+03   -0.34126E-06   -0.41540E-06 16939   0.777E-03    0.111E-04
RMM:   3    -0.226484632916E+03   -0.39449E-08   -0.14641E-07 12008   0.149E-03    0.159E-04
RMM:   4    -0.226484632916E+03   -0.67644E-10   -0.45805E-09  3579   0.625E-04
   4 F= -.22648463E+03 E0= -.22648463E+03  d E =-.335448E-02
       N       E                     dE             d eps       ncg     rms          rms(c)
DAV:   1    -0.226484762485E+03   -0.12957E-03   -0.78596E-02 25072   0.114E+00    0.357E-02
RMM:   2    -0.226485001158E+03   -0.23867E-03   -0.24058E-03 23232   0.178E-01    0.676E-02
RMM:   3    -0.226484949695E+03    0.51463E-04   -0.48944E-05 23232   0.240E-02    0.554E-02
RMM:   4    -0.226484889917E+03    0.59778E-04   -0.29772E-04 23232   0.528E-02    0.154E-02
RMM:   5    -0.226484886801E+03    0.31154E-05   -0.22702E-05 23232   0.139E-02    0.737E-03
RMM:   6    -0.226484885740E+03    0.10612E-05   -0.17109E-06 13727   0.442E-03    0.384E-03
RMM:   7    -0.226484885437E+03    0.30358E-06   -0.95641E-07 13704   0.330E-03
   5 F= -.22648489E+03 E0= -.22648489E+03  d E =-.252520E-03
       N       E                     dE             d eps       ncg     rms          rms(c)
DAV:   1    -0.226484887019E+03   -0.12786E-05   -0.15356E-03 26912   0.159E-01    0.512E-03
RMM:   2    -0.226484889539E+03   -0.25197E-05   -0.34023E-05 23232   0.218E-02    0.755E-04
RMM:   3    -0.226484889456E+03    0.82048E-07   -0.41075E-07 13648   0.224E-03    0.192E-04
RMM:   4    -0.226484889464E+03   -0.70262E-08   -0.38918E-08  6831   0.850E-04
   6 F= -.22648489E+03 E0= -.22648489E+03  d E =-.256547E-03
       N       E                     dE             d eps       ncg     rms          rms(c)
DAV:   1    -0.226484906651E+03   -0.17195E-04   -0.82309E-03 24712   0.364E-01    0.107E-02
RMM:   2    -0.226484921699E+03   -0.15047E-04   -0.16529E-04 23232   0.481E-02    0.623E-03
RMM:   3    -0.226484922363E+03   -0.66408E-06   -0.11485E-05 23054   0.109E-02    0.672E-03
RMM:   4    -0.226484920884E+03    0.14784E-05   -0.95301E-06 21864   0.944E-03    0.238E-03
RMM:   5    -0.226484920800E+03    0.84058E-07   -0.36633E-07 13394   0.206E-03
   7 F= -.22648492E+03 E0= -.22648492E+03  d E =-.313367E-04
       N       E                     dE             d eps       ncg     rms          rms(c)
DAV:   1    -0.226484900048E+03    0.20836E-04   -0.24361E-02 24224   0.627E-01    0.184E-02
RMM:   2    -0.226484942671E+03   -0.42623E-04   -0.47760E-04 23232   0.823E-02    0.163E-03
RMM:   3    -0.226484941730E+03    0.94091E-06   -0.73935E-06 18187   0.827E-03    0.907E-04
RMM:   4    -0.226484941733E+03   -0.23437E-08   -0.45570E-07 13716   0.226E-03
   8 F= -.22648494E+03 E0= -.22648494E+03  d E =-.522692E-04
       N       E                     dE             d eps       ncg     rms          rms(c)
DAV:   1    -0.226484942286E+03   -0.55606E-06   -0.20114E-03 25624   0.182E-01    0.548E-03
RMM:   2    -0.226484947212E+03   -0.49259E-05   -0.51706E-05 23232   0.265E-02    0.756E-03
RMM:   3    -0.226484945855E+03    0.13572E-05   -0.61025E-06 20902   0.798E-03    0.223E-03
RMM:   4    -0.226484945957E+03   -0.10200E-06   -0.95525E-07 13556   0.331E-03
   9 F= -.22648495E+03 E0= -.22648495E+03  d E =-.422444E-05
       N       E                     dE             d eps       ncg     rms          rms(c)
DAV:   1    -0.226484945825E+03    0.30621E-07   -0.13149E-05 25024   0.146E-02    0.914E-04
RMM:   2    -0.226484945849E+03   -0.24915E-07   -0.32707E-07 12045   0.224E-03    0.771E-04
RMM:   3    -0.226484945822E+03    0.27065E-07   -0.11736E-08  3992   0.806E-04    0.555E-04
RMM:   4    -0.226484945807E+03    0.15776E-07   -0.14652E-07 10349   0.124E-03
  10 F= -.22648495E+03 E0= -.22648495E+03  d E =-.407388E-05
       N       E                     dE             d eps       ncg     rms          rms(c)
DAV:   1    -0.226484945805E+03    0.17008E-07   -0.10415E-06 14168   0.420E-03    0.362E-04
RMM:   2    -0.226484945812E+03   -0.67489E-08   -0.57815E-08 11141   0.112E-03    0.121E-04
RMM:   3    -0.226484945813E+03   -0.11556E-08   -0.12239E-10   750   0.302E-04    0.114E-04
RMM:   4    -0.226484945816E+03   -0.26861E-08   -0.66522E-10   872   0.370E-04
  11 F= -.22648495E+03 E0= -.22648495E+03  d E =-.408324E-05
       N       E                     dE             d eps       ncg     rms          rms(c)
DAV:   1    -0.226484945816E+03   -0.26826E-08   -0.45729E-07 13864   0.285E-03    0.144E-04
RMM:   2    -0.226484945809E+03    0.67074E-08   -0.24648E-09  1993   0.732E-04    0.761E-05
RMM:   3    -0.226484945809E+03    0.27416E-09   -0.40063E-10   579   0.693E-04    0.541E-05
RMM:   4    -0.226484945811E+03   -0.18620E-08   -0.54538E-10   576   0.696E-04
  12 F= -.22648495E+03 E0= -.22648495E+03  d E =-.407812E-05
       N       E                     dE             d eps       ncg     rms          rms(c)
DAV:   1    -0.226484945815E+03   -0.55997E-08   -0.12785E-07 13368   0.139E-03    0.137E-04
RMM:   2    -0.226484945817E+03   -0.28046E-08    0.00000E+00   916   0.351E-04    0.707E-05
RMM:   3    -0.226484945816E+03    0.12181E-08    0.00000E+00   356   0.374E-04    0.817E-05
RMM:   4    -0.226484945816E+03    0.24556E-09    0.00000E+00   325   0.364E-04
  13 F= -.22648495E+03 E0= -.22648495E+03  d E =-.408320E-05
       N       E                     dE             d eps       ncg     rms          rms(c)
DAV:   1    -0.226484945816E+03   -0.25011E-11   -0.11777E-08 13544   0.402E-04    0.682E-05
RMM:   2    -0.226484945816E+03    0.31997E-09    0.00000E+00   799   0.113E-04    0.333E-05
RMM:   3    -0.226484945815E+03    0.45000E-09    0.00000E+00   319   0.120E-04    0.118E-05
RMM:   4    -0.226484945815E+03   -0.61931E-10    0.00000E+00   284   0.121E-04
  14 F= -.22648495E+03 E0= -.22648495E+03  d E =-.408274E-05
       N       E                     dE             d eps       ncg     rms          rms(c)
DAV:   1    -0.226484945816E+03   -0.18969E-09   -0.23984E-09 12840   0.190E-04    0.286E-05
RMM:   2    -0.226484945816E+03   -0.12932E-10    0.00000E+00   458   0.617E-05    0.706E-06
RMM:   3    -0.226484945816E+03    0.81883E-10    0.00000E+00   258   0.629E-05    0.410E-06
RMM:   4    -0.226484945815E+03    0.11909E-10    0.00000E+00   232   0.638E-05
  15 F= -.22648495E+03 E0= -.22648495E+03  d E =-.408279E-05
       N       E                     dE             d eps       ncg     rms          rms(c)
DAV:   1    -0.226484945882E+03   -0.66153E-07   -0.32506E-05 22232   0.235E-02    0.844E-04
RMM:   2    -0.226484946008E+03   -0.12668E-06   -0.75826E-07 11737   0.341E-03    0.852E-04
RMM:   3    -0.226484946009E+03   -0.19381E-09   -0.91805E-08 11608   0.112E-03    0.859E-04
RMM:   4    -0.226484945947E+03    0.61718E-07   -0.14361E-07 10928   0.128E-03
  16 F= -.22648495E+03 E0= -.22648495E+03  d E =-.131320E-06
       N       E                     dE             d eps       ncg     rms          rms(c)
DAV:   1    -0.226484945940E+03    0.68603E-07   -0.23079E-08 13752   0.712E-04    0.196E-04
RMM:   2    -0.226484945943E+03   -0.30852E-08    0.00000E+00  1688   0.351E-04    0.696E-05
RMM:   3    -0.226484945944E+03   -0.79663E-09    0.00000E+00   456   0.467E-04    0.530E-05
RMM:   4    -0.226484945942E+03    0.14432E-08    0.00000E+00   279   0.436E-04
  17 F= -.22648495E+03 E0= -.22648495E+03  d E =-.126873E-06
       N       E                     dE             d eps       ncg     rms          rms(c)
DAV:   1    -0.226484945941E+03    0.28485E-08   -0.22866E-08 12704   0.629E-04    0.133E-04
RMM:   2    -0.226484945938E+03    0.30840E-08    0.00000E+00   717   0.256E-04    0.594E-05
RMM:   3    -0.226484945937E+03    0.13224E-08    0.00000E+00   239   0.307E-04    0.288E-05
RMM:   4    -0.226484945937E+03   -0.46373E-09    0.00000E+00   179   0.273E-04
  18 F= -.22648495E+03 E0= -.22648495E+03  d E =-.121525E-06
       N       E                     dE             d eps       ncg     rms          rms(c)
DAV:   1    -0.226484945925E+03    0.11972E-07   -0.11953E-05 21848   0.139E-02    0.517E-04
RMM:   2    -0.226484946000E+03   -0.75678E-07   -0.33670E-07 11674   0.220E-03    0.796E-04
RMM:   3    -0.226484945963E+03    0.37179E-07   -0.77965E-08 10404   0.102E-03    0.516E-04
RMM:   4    -0.226484945954E+03    0.93466E-08    0.00000E+00   497   0.418E-04
  19 F= -.22648495E+03 E0= -.22648495E+03  d E =-.167166E-07
       N       E                     dE             d eps       ncg     rms          rms(c)
DAV:   1    -0.226484945947E+03    0.16397E-07   -0.66161E-08 12736   0.103E-03    0.119E-04
RMM:   2    -0.226484945947E+03   -0.22601E-09    0.00000E+00   871   0.279E-04    0.144E-04
RMM:   3    -0.226484945947E+03   -0.50230E-09    0.00000E+00   236   0.315E-04    0.731E-05
RMM:   4    -0.226484945946E+03    0.18689E-08    0.00000E+00   162   0.336E-04
  20 F= -.22648495E+03 E0= -.22648495E+03  d E =-.852597E-08
