AlO                                     
           1
     4.802777   -0.024014    0.000000
    -2.422185    4.171333    0.000000
     0.000000    0.000000   12.971600
   Al   O 
  12  18
Direct configuration=     1
   0.00000000  0.00000000  0.35221672
   0.00000000  0.00000000  0.64778325
   0.00000000  0.00000000  0.14778328
   0.00000000  0.00000000  0.85221675
   0.66666669  0.33333334  0.68555007
   0.66666669  0.33333334  0.98111662
   0.66666669  0.33333334  0.48111662
   0.66666669  0.33333334  0.18555001
   0.33333334  0.66666669  0.01888338
   0.33333334  0.66666669  0.31444993
   0.33333334  0.66666669  0.81444993
   0.33333334  0.66666669  0.51888338
   0.30611761  0.00000000  0.25000000
   0.69388239  0.00000000  0.75000000
   0.00000000  0.30611761  0.25000000
   0.00000000  0.69388239  0.75000000
   0.69388239  0.69388239  0.25000000
   0.30611761  0.30611761  0.75000000
   0.97278430  0.33333334  0.58333331
   0.36054904  0.33333334  0.08333334
   0.66666669  0.63945093  0.58333331
   0.66666669  0.02721572  0.08333334
   0.36054904  0.02721572  0.58333331
   0.97278430  0.63945093  0.08333334
   0.63945093  0.66666669  0.91666669
   0.02721572  0.66666669  0.41666666
   0.33333334  0.97278430  0.91666669
   0.33333334  0.36054904  0.41666666
   0.02721572  0.36054904  0.91666669
   0.63945093  0.97278430  0.41666666
Direct configuration=     2
   0.00027592 -0.00021644  0.35236174
  -0.00027592  0.00021644  0.64763823
  -0.00051157 -0.00022805  0.14763831
   0.00051157  0.00022805  0.85236172
   0.66694260  0.33311690  0.68569508
   0.66639077  0.33354978  0.98097160
   0.66615512  0.33310529  0.48097165
   0.66717826  0.33356139  0.18569498
   0.33360926  0.66645025  0.01902840
   0.33305743  0.66688313  0.31430492
   0.33282177  0.66643864  0.81430496
   0.33384491  0.66689474  0.51902835
   0.30604914 -0.00000165  0.25006029
   0.69395086  0.00000165  0.74993971
  -0.00000970  0.30598954  0.24996861
   0.00000970  0.69401046  0.75003139
   0.69387822  0.69388633  0.24997112
   0.30612178  0.30611367  0.75002888
   0.97271582  0.33333170  0.58339361
   0.36061752  0.33333499  0.08327304
   0.66665699  0.63932285  0.58330193
   0.66667639  0.02734380  0.08336472
   0.36054488  0.02721967  0.58330443
   0.97278846  0.63944698  0.08336221
   0.63938245  0.66666504  0.91672698
   0.02728420  0.66666833  0.41660636
   0.33332364  0.97265622  0.91663530
   0.33334304  0.36067712  0.41669804
   0.02721156  0.36055299  0.91663781
   0.63945509  0.97278035  0.41669554
Direct configuration=     3
   0.00050313 -0.00039467  0.35248116
  -0.00050313  0.00039467  0.64751881
  -0.00093284 -0.00041584  0.14751892
   0.00093284  0.00041584  0.85248111
   0.66716981  0.33293867  0.68581450
   0.66616356  0.33372802  0.98085219
   0.66573385  0.33291750  0.48085227
   0.66759953  0.33374919  0.18581436
   0.33383647  0.66627201  0.01914781
   0.33283022  0.66706136  0.31418550
   0.33240050  0.66625084  0.81418558
   0.33426618  0.66708253  0.51914773
   0.30599275 -0.00000300  0.25010995
   0.69400725  0.00000300  0.74989005
  -0.00001769  0.30588407  0.24994276
   0.00001769  0.69411593  0.75005724
   0.69387479  0.69388958  0.24994734
   0.30612521  0.30611042  0.75005266
   0.97265944  0.33333034  0.58344326
   0.36067391  0.33333634  0.08322339
   0.66664900  0.63921738  0.58327608
   0.66668438  0.02744927  0.08339057
   0.36054145  0.02722292  0.58328065
   0.97279190  0.63944373  0.08338599
   0.63932606  0.66666369  0.91677663
   0.02734058  0.66666969  0.41655671
   0.33331565  0.97255076  0.91660945
   0.33335103  0.36078259  0.41672389
   0.02720813  0.36055624  0.91661403
   0.63945852  0.97277710  0.41671932
Direct configuration=     4
   0.00051639 -0.00040508  0.35248813
  -0.00051639  0.00040508  0.64751184
  -0.00095743 -0.00042680  0.14751196
   0.00095743  0.00042680  0.85248807
   0.66718307  0.33292827  0.68582147
   0.66615030  0.33373842  0.98084522
   0.66570926  0.33290654  0.48084530
   0.66762411  0.33376015  0.18582133
   0.33384973  0.66626161  0.01915478
   0.33281696  0.66707176  0.31417853
   0.33237592  0.66623988  0.81417861
   0.33429077  0.66709349  0.51915470
   0.30598946 -0.00000308  0.25011284
   0.69401054  0.00000308  0.74988716
  -0.00001816  0.30587791  0.24994126
   0.00001816  0.69412209  0.75005874
   0.69387459  0.69388977  0.24994595
   0.30612541  0.30611023  0.75005405
   0.97265615  0.33333026  0.58344616
   0.36067720  0.33333642  0.08322049
   0.66664853  0.63921123  0.58327457
   0.66668484  0.02745542  0.08339208
   0.36054125  0.02722311  0.58327927
   0.97279210  0.63944354  0.08338738
   0.63932277  0.66666361  0.91677953
   0.02734388  0.66666977  0.41655381
   0.33331519  0.97254460  0.91660794
   0.33335150  0.36078874  0.41672540
   0.02720793  0.36055643  0.91661264
   0.63945872  0.97277691  0.41672070
Direct configuration=     5
   0.00054735 -0.00039592  0.35252432
  -0.00054735  0.00039592  0.64747565
  -0.00094815 -0.00039598  0.14747573
   0.00094815  0.00039598  0.85252430
   0.66721404  0.33293742  0.68585767
   0.66611934  0.33372926  0.98080902
   0.66571854  0.33293736  0.48080907
   0.66761483  0.33372933  0.18585755
   0.33388069  0.66627077  0.01919098
   0.33278599  0.66706261  0.31414233
   0.33238520  0.66627070  0.81414239
   0.33428149  0.66706267  0.51919093
   0.30607898  0.00025512  0.25009972
   0.69392102 -0.00025512  0.74990028
   0.00011520  0.30580679  0.24994891
  -0.00011520  0.69419321  0.75005109
   0.69375920  0.69389913  0.24995139
   0.30624080  0.30610087  0.75004861
   0.97274567  0.33358846  0.58343303
   0.36058767  0.33307822  0.08323362
   0.66678188  0.63914010  0.58328222
   0.66655149  0.02752655  0.08338442
   0.36042585  0.02723246  0.58328471
   0.97290749  0.63943419  0.08338194
   0.63941230  0.66692181  0.91676640
   0.02725435  0.66641157  0.41656694
   0.33344854  0.97247348  0.91661560
   0.33321815  0.36085987  0.41671775
   0.02709253  0.36056578  0.91661808
   0.63957412  0.97276756  0.41671526
Direct configuration=     6
   0.00055168 -0.00039464  0.35252939
  -0.00055168  0.00039464  0.64747058
  -0.00094685 -0.00039167  0.14747066
   0.00094685  0.00039167  0.85252937
   0.66721837  0.33293870  0.68586273
   0.66611501  0.33372798  0.98080396
   0.66571984  0.33294167  0.48080401
   0.66761354  0.33372501  0.18586262
   0.33388502  0.66627205  0.01919604
   0.33278166  0.66706133  0.31413727
   0.33238649  0.66627502  0.81413732
   0.33428019  0.66705836  0.51919599
   0.30609151  0.00029124  0.25009788
   0.69390849 -0.00029124  0.74990212
   0.00013385  0.30579684  0.24994998
  -0.00013385  0.69420316  0.75005002
   0.69374305  0.69390043  0.24995215
   0.30625695  0.30609957  0.75004785
   0.97275819  0.33362459  0.58343119
   0.36057515  0.33304210  0.08323546
   0.66680054  0.63913015  0.58328330
   0.66653283  0.02753650  0.08338335
   0.36040971  0.02723377  0.58328547
   0.97292363  0.63943288  0.08338118
   0.63942482  0.66695793  0.91676457
   0.02724183  0.66637544  0.41656878
   0.33346720  0.97246353  0.91661667
   0.33319949  0.36086982  0.41671667
   0.02707639  0.36056709  0.91661884
   0.63959026  0.97276625  0.41671450
Direct configuration=     7
   0.00054158 -0.00039215  0.35252802
  -0.00054158  0.00039215  0.64747195
  -0.00093881 -0.00038597  0.14747213
   0.00093881  0.00038597  0.85252790
   0.66720826  0.33294119  0.68586136
   0.66612511  0.33372550  0.98080533
   0.66572788  0.33294738  0.48080547
   0.66760550  0.33371931  0.18586116
   0.33387492  0.66627453  0.01919467
   0.33279177  0.66705884  0.31413864
   0.33239453  0.66628072  0.81413878
   0.33427215  0.66705265  0.51919453
   0.30609920  0.00033313  0.25012466
   0.69390080 -0.00033313  0.74987534
   0.00015605  0.30578698  0.24993648
  -0.00015605  0.69421302  0.75006352
   0.69373620  0.69391343  0.24993890
   0.30626380  0.30608657  0.75006110
   0.97276589  0.33366648  0.58345797
   0.36056745  0.33300021  0.08320867
   0.66682274  0.63912029  0.58326980
   0.66651063  0.02754636  0.08339685
   0.36040286  0.02724676  0.58327222
   0.97293048  0.63941989  0.08339443
   0.63943252  0.66699982  0.91679135
   0.02723413  0.66633355  0.41654200
   0.33348940  0.97245366  0.91660317
   0.33317729  0.36087968  0.41673017
   0.02706954  0.36058008  0.91660559
   0.63959711  0.97275326  0.41672775
Direct configuration=     8
   0.00052419 -0.00038788  0.35252565
  -0.00052419  0.00038788  0.64747432
  -0.00092498 -0.00037615  0.14747464
   0.00092498  0.00037615  0.85252539
   0.66719088  0.33294546  0.68585900
   0.66614250  0.33372122  0.98080769
   0.66574171  0.33295719  0.48080799
   0.66759167  0.33370950  0.18585864
   0.33385753  0.66627881  0.01919231
   0.33280915  0.66705457  0.31414100
   0.33240836  0.66629053  0.81414130
   0.33425832  0.66704284  0.51919201
   0.30611245  0.00040522  0.25017075
   0.69388755 -0.00040522  0.74982925
   0.00019425  0.30577001  0.24991325
  -0.00019425  0.69422999  0.75008675
   0.69372442  0.69393579  0.24991610
   0.30627558  0.30606421  0.75008390
   0.97277914  0.33373856  0.58350406
   0.36055421  0.33292812  0.08316259
   0.66686094  0.63910332  0.58324656
   0.66647243  0.02756332  0.08342008
   0.36039108  0.02726912  0.58324942
   0.97294227  0.63939752  0.08341723
   0.63944576  0.66707191  0.91683744
   0.02722088  0.66626147  0.41649591
   0.33352760  0.97243670  0.91657994
   0.33313909  0.36089665  0.41675341
   0.02705775  0.36060245  0.91658279
   0.63960890  0.97273090  0.41675055
Direct configuration=     9
   0.00054214 -0.00037552  0.35252423
  -0.00054214  0.00037552  0.64747574
  -0.00092414 -0.00036518  0.14747608
   0.00092414  0.00036518  0.85252395
   0.66720882  0.33295783  0.68585757
   0.66612455  0.33370886  0.98080911
   0.66574254  0.33296816  0.48080943
   0.66759083  0.33369853  0.18585720
   0.33387548  0.66629117  0.01919089
   0.33279121  0.66704220  0.31414243
   0.33240920  0.66630150  0.81414274
   0.33425749  0.66703187  0.51919057
   0.30614748  0.00042672  0.25017759
   0.69385252 -0.00042672  0.74982241
   0.00020626  0.30580136  0.24990979
  -0.00020626  0.69419864  0.75009021
   0.69370258  0.69392302  0.24991272
   0.30629742  0.30607698  0.75008728
   0.97281416  0.33376007  0.58351090
   0.36051918  0.33290662  0.08315575
   0.66687295  0.63913467  0.58324311
   0.66646043  0.02753197  0.08342354
   0.36036924  0.02725636  0.58324603
   0.97296410  0.63941029  0.08342062
   0.63948079  0.66709341  0.91684427
   0.02718586  0.66623996  0.41648907
   0.33353960  0.97246805  0.91657648
   0.33312708  0.36086530  0.41675686
   0.02703592  0.36058968  0.91657940
   0.63963073  0.97274366  0.41675394
Direct configuration=    10
   0.00054355 -0.00037454  0.35252412
  -0.00054355  0.00037454  0.64747585
  -0.00092408 -0.00036432  0.14747620
   0.00092408  0.00036432  0.85252383
   0.66721023  0.33295880  0.68585746
   0.66612314  0.33370789  0.98080923
   0.66574261  0.33296902  0.48080954
   0.66759076  0.33369766  0.18585709
   0.33387689  0.66629214  0.01919077
   0.33278980  0.66704123  0.31414254
   0.33240927  0.66630237  0.81414285
   0.33425742  0.66703101  0.51919046
   0.30615023  0.00042841  0.25017812
   0.69384977 -0.00042841  0.74982188
   0.00020721  0.30580382  0.24990952
  -0.00020721  0.69419618  0.75009048
   0.69370087  0.69392202  0.24991245
   0.30629913  0.30607798  0.75008755
   0.97281692  0.33376176  0.58351144
   0.36051643  0.33290493  0.08315521
   0.66687389  0.63913714  0.58324284
   0.66645948  0.02752951  0.08342381
   0.36036752  0.02725535  0.58324576
   0.97296582  0.63941130  0.08342089
   0.63948354  0.66709510  0.91684481
   0.02718310  0.66623827  0.41648853
   0.33354055  0.97247051  0.91657621
   0.33312614  0.36086283  0.41675713
   0.02703420  0.36058868  0.91657914
   0.63963245  0.97274467  0.41675421
Direct configuration=    11
   0.00054313 -0.00037483  0.35252415
  -0.00054313  0.00037483  0.64747582
  -0.00092410 -0.00036458  0.14747616
   0.00092410  0.00036458  0.85252387
   0.66720982  0.33295851  0.68585749
   0.66612355  0.33370817  0.98080919
   0.66574259  0.33296877  0.48080951
   0.66759078  0.33369792  0.18585712
   0.33387648  0.66629186  0.01919081
   0.33279021  0.66704152  0.31414251
   0.33240925  0.66630211  0.81414282
   0.33425744  0.66703126  0.51919049
   0.30614942  0.00042792  0.25017796
   0.69385058 -0.00042792  0.74982204
   0.00020693  0.30580310  0.24990960
  -0.00020693  0.69419690  0.75009040
   0.69370137  0.69392231  0.24991253
   0.30629863  0.30607769  0.75008747
   0.97281611  0.33376126  0.58351128
   0.36051723  0.33290543  0.08315537
   0.66687362  0.63913641  0.58324292
   0.66645976  0.02753023  0.08342373
   0.36036803  0.02725565  0.58324584
   0.97296532  0.63941100  0.08342081
   0.63948274  0.66709460  0.91684465
   0.02718391  0.66623877  0.41648869
   0.33354027  0.97246979  0.91657629
   0.33312641  0.36086356  0.41675705
   0.02703470  0.36058897  0.91657922
   0.63963194  0.97274437  0.41675413
Direct configuration=    12
   0.00054343 -0.00037462  0.35252413
  -0.00054343  0.00037462  0.64747584
  -0.00092408 -0.00036439  0.14747619
   0.00092408  0.00036439  0.85252384
   0.66721011  0.33295872  0.68585747
   0.66612326  0.33370797  0.98080922
   0.66574260  0.33296895  0.48080953
   0.66759077  0.33369774  0.18585710
   0.33387677  0.66629206  0.01919078
   0.33278992  0.66704131  0.31414253
   0.33240926  0.66630229  0.81414285
   0.33425743  0.66703108  0.51919047
   0.30615000  0.00042827  0.25017808
   0.69385000 -0.00042827  0.74982192
   0.00020713  0.30580362  0.24990955
  -0.00020713  0.69419638  0.75009045
   0.69370101  0.69392210  0.24991247
   0.30629899  0.30607790  0.75008753
   0.97281669  0.33376161  0.58351139
   0.36051666  0.33290507  0.08315526
   0.66687381  0.63913693  0.58324286
   0.66645956  0.02752972  0.08342379
   0.36036767  0.02725544  0.58324579
   0.97296568  0.63941121  0.08342086
   0.63948331  0.66709496  0.91684476
   0.02718334  0.66623842  0.41648858
   0.33354047  0.97247030  0.91657623
   0.33312622  0.36086304  0.41675711
   0.02703434  0.36058876  0.91657916
   0.63963230  0.97274458  0.41675418
Direct configuration=    13
   0.00054328 -0.00037473  0.35252414
  -0.00054328  0.00037473  0.64747583
  -0.00092409 -0.00036448  0.14747618
   0.00092409  0.00036448  0.85252385
   0.66720997  0.33295862  0.68585748
   0.66612341  0.33370807  0.98080920
   0.66574260  0.33296886  0.48080952
   0.66759078  0.33369783  0.18585711
   0.33387662  0.66629196  0.01919080
   0.33279006  0.66704141  0.31414252
   0.33240925  0.66630220  0.81414283
   0.33425743  0.66703117  0.51919048
   0.30614971  0.00042809  0.25017802
   0.69385029 -0.00042809  0.74982198
   0.00020703  0.30580336  0.24990957
  -0.00020703  0.69419664  0.75009043
   0.69370119  0.69392221  0.24991250
   0.30629881  0.30607779  0.75008750
   0.97281640  0.33376144  0.58351133
   0.36051695  0.33290525  0.08315532
   0.66687371  0.63913667  0.58324289
   0.66645966  0.02752998  0.08342376
   0.36036785  0.02725554  0.58324581
   0.97296550  0.63941111  0.08342084
   0.63948302  0.66709478  0.91684471
   0.02718362  0.66623859  0.41648864
   0.33354037  0.97247005  0.91657626
   0.33312632  0.36086330  0.41675708
   0.02703452  0.36058886  0.91657919
   0.63963212  0.97274448  0.41675416
Direct configuration=    14
   0.00054333 -0.00037469  0.35252414
  -0.00054333  0.00037469  0.64747583
  -0.00092409 -0.00036446  0.14747618
   0.00092409  0.00036446  0.85252385
   0.66721001  0.33295865  0.68585748
   0.66612336  0.33370804  0.98080921
   0.66574260  0.33296889  0.48080952
   0.66759077  0.33369780  0.18585710
   0.33387667  0.66629199  0.01919079
   0.33279002  0.66704138  0.31414252
   0.33240926  0.66630223  0.81414284
   0.33425743  0.66703114  0.51919048
   0.30614980  0.00042815  0.25017804
   0.69385020 -0.00042815  0.74982196
   0.00020706  0.30580344  0.24990957
  -0.00020706  0.69419656  0.75009043
   0.69370113  0.69392218  0.24991249
   0.30629887  0.30607782  0.75008751
   0.97281649  0.33376149  0.58351135
   0.36051686  0.33290519  0.08315530
   0.66687374  0.63913675  0.58324288
   0.66645963  0.02752990  0.08342377
   0.36036779  0.02725551  0.58324580
   0.97296555  0.63941114  0.08342084
   0.63948311  0.66709484  0.91684473
   0.02718353  0.66623854  0.41648862
   0.33354040  0.97247013  0.91657625
   0.33312629  0.36086322  0.41675709
   0.02703447  0.36058883  0.91657918
   0.63963218  0.97274451  0.41675417
Direct configuration=    15
   0.00054330 -0.00037471  0.35252414
  -0.00054330  0.00037471  0.64747583
  -0.00092409 -0.00036447  0.14747618
   0.00092409  0.00036447  0.85252385
   0.66720999  0.33295863  0.68585748
   0.66612338  0.33370805  0.98080921
   0.66574260  0.33296887  0.48080952
   0.66759078  0.33369781  0.18585711
   0.33387665  0.66629198  0.01919079
   0.33279004  0.66704140  0.31414252
   0.33240925  0.66630222  0.81414284
   0.33425743  0.66703116  0.51919048
   0.30614976  0.00042812  0.25017803
   0.69385024 -0.00042812  0.74982197
   0.00020704  0.30580340  0.24990957
  -0.00020704  0.69419660  0.75009043
   0.69370116  0.69392219  0.24991250
   0.30629884  0.30607781  0.75008750
   0.97281644  0.33376147  0.58351134
   0.36051690  0.33290522  0.08315531
   0.66687373  0.63913671  0.58324288
   0.66645964  0.02752993  0.08342377
   0.36036782  0.02725553  0.58324581
   0.97296553  0.63941112  0.08342084
   0.63948307  0.66709481  0.91684472
   0.02718358  0.66623856  0.41648863
   0.33354039  0.97247009  0.91657626
   0.33312630  0.36086326  0.41675709
   0.02703450  0.36058885  0.91657918
   0.63963215  0.97274450  0.41675416
Direct configuration=    16
   0.00054014 -0.00038095  0.35252272
  -0.00054014  0.00038095  0.64747725
  -0.00092972 -0.00037247  0.14747761
   0.00092972  0.00037247  0.85252242
   0.66720683  0.33295240  0.68585607
   0.66612654  0.33371429  0.98081062
   0.66573696  0.33296088  0.48081095
   0.66759641  0.33370581  0.18585568
   0.33387349  0.66628574  0.01918938
   0.33279320  0.66704763  0.31414393
   0.33240362  0.66629422  0.81414426
   0.33426307  0.66703915  0.51918905
   0.30615492  0.00043306  0.25017826
   0.69384508 -0.00043306  0.74982174
   0.00020905  0.30580690  0.24990905
  -0.00020905  0.69419310  0.75009095
   0.69369964  0.69392360  0.24991272
   0.30630036  0.30607640  0.75008728
   0.97282161  0.33376640  0.58351157
   0.36051174  0.33290028  0.08315508
   0.66687573  0.63914021  0.58324237
   0.66645764  0.02752644  0.08342428
   0.36036630  0.02725693  0.58324603
   0.97296705  0.63940972  0.08342061
   0.63948824  0.66709975  0.91684495
   0.02717841  0.66623363  0.41648840
   0.33354239  0.97247359  0.91657574
   0.33312430  0.36085976  0.41675760
   0.02703298  0.36059025  0.91657941
   0.63963367  0.97274309  0.41675394
Direct configuration=    17
   0.00054011 -0.00038101  0.35252271
  -0.00054011  0.00038101  0.64747726
  -0.00092978 -0.00037255  0.14747762
   0.00092978  0.00037255  0.85252241
   0.66720680  0.33295233  0.68585605
   0.66612658  0.33371436  0.98081063
   0.66573691  0.33296079  0.48081096
   0.66759647  0.33370589  0.18585566
   0.33387345  0.66628567  0.01918937
   0.33279323  0.66704770  0.31414395
   0.33240356  0.66629414  0.81414428
   0.33426312  0.66703924  0.51918904
   0.30615498  0.00043311  0.25017826
   0.69384502 -0.00043311  0.74982174
   0.00020907  0.30580693  0.24990905
  -0.00020907  0.69419307  0.75009095
   0.69369963  0.69392361  0.24991272
   0.30630037  0.30607639  0.75008728
   0.97282166  0.33376646  0.58351157
   0.36051168  0.33290023  0.08315507
   0.66687575  0.63914025  0.58324236
   0.66645762  0.02752640  0.08342429
   0.36036628  0.02725695  0.58324604
   0.97296706  0.63940970  0.08342061
   0.63948829  0.66709980  0.91684495
   0.02717836  0.66623357  0.41648840
   0.33354241  0.97247362  0.91657573
   0.33312428  0.36085972  0.41675761
   0.02703296  0.36059027  0.91657941
   0.63963369  0.97274308  0.41675393
Direct configuration=    18
   0.00054004 -0.00038114  0.35252268
  -0.00054004  0.00038114  0.64747729
  -0.00092990 -0.00037272  0.14747765
   0.00092990  0.00037272  0.85252238
   0.66720673  0.33295220  0.68585602
   0.66612664  0.33371449  0.98081066
   0.66573679  0.33296062  0.48081099
   0.66759659  0.33370606  0.18585563
   0.33387339  0.66628554  0.01918934
   0.33279330  0.66704783  0.31414398
   0.33240344  0.66629397  0.81414431
   0.33426324  0.66703941  0.51918901
   0.30615508  0.00043322  0.25017827
   0.69384492 -0.00043322  0.74982173
   0.00020911  0.30580701  0.24990904
  -0.00020911  0.69419299  0.75009096
   0.69369959  0.69392364  0.24991273
   0.30630041  0.30607636  0.75008727
   0.97282177  0.33376656  0.58351158
   0.36051157  0.33290013  0.08315507
   0.66687580  0.63914032  0.58324235
   0.66645758  0.02752633  0.08342430
   0.36036625  0.02725698  0.58324604
   0.97296709  0.63940967  0.08342061
   0.63948840  0.66709990  0.91684495
   0.02717825  0.66623347  0.41648839
   0.33354245  0.97247370  0.91657572
   0.33312423  0.36085965  0.41675762
   0.02703293  0.36059030  0.91657942
   0.63963372  0.97274305  0.41675393
Direct configuration=    19
   0.00054123 -0.00038120  0.35252228
  -0.00054123  0.00038120  0.64747769
  -0.00093084 -0.00037303  0.14747806
   0.00093084  0.00037303  0.85252197
   0.66720792  0.33295214  0.68585563
   0.66612546  0.33371455  0.98081106
   0.66573585  0.33296031  0.48081140
   0.66759753  0.33370638  0.18585523
   0.33387457  0.66628548  0.01918894
   0.33279211  0.66704789  0.31414437
   0.33240250  0.66629365  0.81414471
   0.33426418  0.66703972  0.51918860
   0.30615461  0.00043445  0.25017794
   0.69384539 -0.00043445  0.74982206
   0.00021036  0.30580796  0.24990918
  -0.00021036  0.69419204  0.75009082
   0.69370274  0.69392686  0.24991288
   0.30629726  0.30607314  0.75008712
   0.97282130  0.33376779  0.58351125
   0.36051205  0.33289890  0.08315539
   0.66687705  0.63914127  0.58324249
   0.66645632  0.02752538  0.08342415
   0.36036940  0.02726019  0.58324620
   0.97296395  0.63940646  0.08342045
   0.63948792  0.66710113  0.91684463
   0.02717873  0.66623224  0.41648872
   0.33354371  0.97247465  0.91657587
   0.33312298  0.36085870  0.41675748
   0.02703607  0.36059351  0.91657957
   0.63963057  0.97273983  0.41675377
Direct configuration=    20
   0.00054116 -0.00038120  0.35252231
  -0.00054116  0.00038120  0.64747766
  -0.00093078 -0.00037302  0.14747803
   0.00093078  0.00037302  0.85252200
   0.66720785  0.33295214  0.68585565
   0.66612553  0.33371454  0.98081104
   0.66573590  0.33296033  0.48081138
   0.66759747  0.33370636  0.18585525
   0.33387450  0.66628549  0.01918896
   0.33279218  0.66704789  0.31414435
   0.33240256  0.66629367  0.81414469
   0.33426413  0.66703970  0.51918862
   0.30615464  0.00043438  0.25017796
   0.69384536 -0.00043438  0.74982204
   0.00021029  0.30580790  0.24990917
  -0.00021029  0.69419210  0.75009083
   0.69370256  0.69392667  0.24991288
   0.30629744  0.30607333  0.75008712
   0.97282132  0.33376772  0.58351127
   0.36051202  0.33289897  0.08315538
   0.66687698  0.63914122  0.58324249
   0.66645640  0.02752543  0.08342416
   0.36036922  0.02726001  0.58324619
   0.97296413  0.63940664  0.08342046
   0.63948795  0.66710106  0.91684465
   0.02717870  0.66623231  0.41648870
   0.33354363  0.97247459  0.91657586
   0.33312305  0.36085875  0.41675748
   0.02703589  0.36059333  0.91657956
   0.63963075  0.97274001  0.41675378
