       N       E                     dE             d eps       ncg     rms          rms(c)
DAV:   1     0.622346621223E+02    0.62235E+02   -0.10378E+04  3696   0.954E+02
DAV:   2    -0.379238731204E+02   -0.10016E+03   -0.94275E+02  4972   0.150E+02
DAV:   3    -0.426292955370E+02   -0.47054E+01   -0.46372E+01  4820   0.310E+01
DAV:   4    -0.427149758634E+02   -0.85680E-01   -0.85455E-01  4530   0.516E+00
DAV:   5    -0.427175945765E+02   -0.26187E-02   -0.26178E-02  4852   0.747E-01    0.593E+00
RMM:   6    -0.421285610893E+02    0.58903E+00   -0.29785E-01  3696   0.215E+00    0.348E+00
RMM:   7    -0.418572740118E+02    0.27129E+00   -0.61823E-01  3696   0.312E+00    0.284E-01
RMM:   8    -0.418596454336E+02   -0.23714E-02   -0.18943E-02  3722   0.603E-01    0.336E-02
RMM:   9    -0.418598214099E+02   -0.17598E-03   -0.11875E-03  3930   0.154E-01    0.213E-02
RMM:  10    -0.418598530728E+02   -0.31663E-04   -0.97821E-05  3707   0.549E-02    0.121E-02
RMM:  11    -0.418598517181E+02    0.13547E-05   -0.12568E-05  3278   0.166E-02    0.228E-03
RMM:  12    -0.418598510498E+02    0.66826E-06   -0.74600E-07  2313   0.538E-03
   1 F= -.41859851E+02 E0= -.41859851E+02  d E =-.418599E+02
