 vasp.5.3.5 31Mar14 (build Nov 12 2015 11:19:23) complex                         
 executed on           CrayXC_GCC date 2016.06.01  19:04:28
 running on   24 total cores
 distrk:  each k-point on   24 cores,    1 groups
 distr:  one band on NCORES_PER_BAND=  12 cores,    2 groups


--------------------------------------------------------------------------------------------------------


 INCAR:
 POTCAR:   PAW_GGA Si 05Jan2001                   

 ----------------------------------------------------------------------------- 
|                                                                             |
|           W    W    AA    RRRRR   N    N  II  N    N   GGGG   !!!           |
|           W    W   A  A   R    R  NN   N  II  NN   N  G    G  !!!           |
|           W    W  A    A  R    R  N N  N  II  N N  N  G       !!!           |
|           W WW W  AAAAAA  RRRRR   N  N N  II  N  N N  G  GGG   !            |
|           WW  WW  A    A  R   R   N   NN  II  N   NN  G    G                |
|           W    W  A    A  R    R  N    N  II  N    N   GGGG   !!!           |
|                                                                             |
|      For optimal performance we recommend to set                            |
|        NCORE= 4 - approx SQRT( number of cores)                             |
|      NCORE specifies how many cores store one orbital (NPAR=cpu/NCORE).     |
|      This setting can  greatly improve the performance of VASP for DFT.     |
|      The default, NPAR=number of cores might be grossly inefficient         |
|      on modern multi-core architectures or massively parallel machines.     |
|      Do your own testing !!!!                                               |
|      Unfortunately you need to use the default for GW and RPA calculations. |
|      (for HF NCORE is supported but not extensively tested yet)             |
|                                                                             |
 ----------------------------------------------------------------------------- 

 POTCAR:   PAW_GGA Si 05Jan2001                   
   VRHFIN =Si: s2p2                                                             
   LEXCH  = 91                                                                  
   EATOM  =   103.3076 eV,    7.5929 Ry                                         
                                                                                
   TITEL  = PAW_GGA Si 05Jan2001                                                
   LULTRA =        F    use ultrasoft PP ?                                      
   IUNSCR =        1    unscreen: 0-lin 1-nonlin 2-no                           
   RPACOR =    1.500    partial core radius                                     
   POMASS =   28.085; ZVAL   =    4.000    mass and valenz                      
   RCORE  =    1.900    outmost cutoff radius                                   
   RWIGS  =    2.480; RWIGS  =    1.312    wigner-seitz radius (au A)           
   ENMAX  =  245.435; ENMIN  =  184.076 eV                                      
   ICORE  =        2    local potential                                         
   LCOR   =        T    correct aug charges                                     
   LPAW   =        T    paw PP                                                  
   EAUG   =  322.069                                                            
   DEXC   =    -.001                                                            
   RMAX   =    2.943    core radius for proj-oper                               
   RAUG   =    1.300    factor for augmentation sphere                          
   RDEP   =    1.993    core radius for depl-charge                             
   QCUT   =   -4.247; QGAM   =    8.494    optimization parameters              
                                                                                
   Description                                                                  
     l     E      TYP  RCUT    TYP  RCUT                                        
     0   .000     23  1.900                                                     
     0   .000     23  1.900                                                     
     1   .000     23  1.900                                                     
     1   .000     23  1.900                                                     
     2   .000      7  1.900                                                     
  local pseudopotential read in
  partial core-charges read in
  atomic valenz-charges read in
  non local Contribution for L=           0  read in
    real space projection operators read in
  non local Contribution for L=           0  read in
    real space projection operators read in
  non local Contribution for L=           1  read in
    real space projection operators read in
  non local Contribution for L=           1  read in
    real space projection operators read in
    PAW grid and wavefunctions read in

   number of l-projection  operators is LMAX  =           4
   number of lm-projection operators is LMMAX =           8


 ----------------------------------------------------------------------------- 
|                                                                             |
|  ADVICE TO THIS USER RUNNING 'VASP/VAMP'   (HEAR YOUR MASTER'S VOICE ...):  |
|                                                                             |
|      You enforced a specific xc-type in the INCAR file,                     |
|      a different type was found on the POTCAR file                          |
|          I HOPE YOU KNOW, WHAT YOU ARE  DOING                               |
|                                                                             |
 ----------------------------------------------------------------------------- 

 PAW_GGA Si 05Jan2001                   :
 energy of atom  1       EATOM= -103.3076
 kinetic energy error for atom=    0.0012 (will be added to EATOM!!)


 POSCAR: Si8                                     
  positions in direct lattice
  velocities in cartesian coordinates
 exchange correlation table for  LEXCH =       14
   RHO(1)=    0.500       N(1)  =     2000
   RHO(2)=  100.500       N(2)  =     4000



--------------------------------------------------------------------------------------------------------


 ion  position               nearest neighbor table
   1  0.000  0.000  0.000-   2 2.35   4 2.35   6 2.35   8 2.35
   2  0.750  0.750  0.250-   1 2.35   3 2.35   5 2.35   7 2.35
   3  0.000  0.500  0.500-   2 2.35   4 2.35   6 2.35   8 2.35
   4  0.750  0.250  0.750-   1 2.35   3 2.35   5 2.35   7 2.35
   5  0.500  0.000  0.500-   2 2.35   4 2.35   6 2.35   8 2.35
   6  0.250  0.750  0.750-   1 2.35   3 2.35   5 2.35   7 2.35
   7  0.500  0.500  0.000-   2 2.35   4 2.35   6 2.35   8 2.35
   8  0.250  0.250  0.250-   1 2.35   3 2.35   5 2.35   7 2.35

  LATTYP: Found a simple cubic cell.
 ALAT       =     5.4344535729
  
  Lattice vectors:
  
 A1 = (   5.4344535729,   0.0000000000,  -0.0000000000)
 A2 = (  -0.0000000000,   5.4344535729,   0.0000000000)
 A3 = (  -0.0000000000,  -0.0000000000,   5.4344535729)


Analysis of symmetry for initial positions (statically):
=====================================================================
 Subroutine PRICEL returns following result:
 
  LATTYP: Found a face centered cubic cell.
 ALAT       =     5.4344535729
  
  Lattice vectors:
  
 A1 = (   2.7172267864,   2.7172267864,   0.0000000000)
 A2 = (   2.7172267864,  -0.0000000000,  -2.7172267864)
 A3 = (   0.0000000000,   2.7172267864,  -2.7172267864)
 
   4 primitive cells build up your supercell.
 

 Routine SETGRP: Setting up the symmetry group for a 
 simple cubic supercell.


 Subroutine GETGRP returns: Found 48 space group operations
 (whereof 24 operations were pure point group operations)
 out of a pool of 48 trial point group operations.


The static configuration has the point symmetry T_d .
 The point group associated with its full space group is O_h .


Analysis of symmetry for dynamics (positions and initial velocities):
=====================================================================
 Subroutine PRICEL returns following result:
 
  LATTYP: Found a face centered cubic cell.
 ALAT       =     5.4344535729
  
  Lattice vectors:
  
 A1 = (   2.7172267864,   2.7172267864,   0.0000000000)
 A2 = (   2.7172267864,  -0.0000000000,  -2.7172267864)
 A3 = (   0.0000000000,   2.7172267864,  -2.7172267864)
 
   4 primitive cells build up your supercell.
 

 Routine SETGRP: Setting up the symmetry group for a 
 simple cubic supercell.


 Subroutine GETGRP returns: Found 48 space group operations
 (whereof 24 operations were pure point group operations)
 out of a pool of 48 trial point group operations.


The dynamic configuration has the point symmetry T_d .
 The point group associated with its full space group is O_h .


 KPOINTS: Automatic                               

Automatic generation of k-mesh.
Space group operators:
 irot       det(A)        alpha          n_x          n_y          n_z        tau_x        tau_y        tau_z
    1     1.000000     0.000000     1.000000     0.000000     0.000000     0.000000     0.000000    -0.000000
    2     1.000000   120.000000    -0.577350    -0.577350    -0.577350     0.000000     0.000000    -0.000000
    3     1.000000   120.000000     0.577350     0.577350     0.577350     0.000000     0.000000    -0.000000
    4    -1.000000    90.000000     0.000000     0.000000    -1.000000     0.000000     0.000000    -0.000000
    5    -1.000000   180.000000     0.000000     0.707107     0.707107     0.000000     0.000000    -0.000000
    6    -1.000000    90.000000     0.000000     1.000000     0.000000     0.000000     0.000000    -0.000000
    7     1.000000   180.000000     0.000000     0.000000     1.000000     0.000000     0.000000    -0.000000
    8     1.000000   120.000000    -0.577350     0.577350     0.577350     0.000000     0.000000    -0.000000
    9     1.000000   120.000000    -0.577350     0.577350    -0.577350     0.000000     0.000000    -0.000000
   10    -1.000000    90.000000     0.000000     0.000000     1.000000     0.000000     0.000000    -0.000000
   11    -1.000000    90.000000    -1.000000     0.000000     0.000000     0.000000     0.000000    -0.000000
   12    -1.000000   180.000000     0.707107     0.000000     0.707107     0.000000     0.000000    -0.000000
   13     1.000000   120.000000     0.577350    -0.577350     0.577350     0.000000     0.000000    -0.000000
   14     1.000000   120.000000    -0.577350    -0.577350     0.577350     0.000000     0.000000    -0.000000
   15     1.000000   180.000000     1.000000     0.000000     0.000000     0.000000     0.000000    -0.000000
   16    -1.000000    90.000000     0.000000    -1.000000     0.000000     0.000000     0.000000    -0.000000
   17    -1.000000   180.000000     0.707107     0.707107     0.000000     0.000000     0.000000    -0.000000
   18    -1.000000    90.000000     1.000000     0.000000     0.000000     0.000000     0.000000    -0.000000
   19     1.000000   120.000000     0.577350    -0.577350    -0.577350     0.000000     0.000000    -0.000000
   20     1.000000   180.000000     0.000000     1.000000     0.000000     0.000000     0.000000    -0.000000
   21     1.000000   120.000000     0.577350     0.577350    -0.577350     0.000000     0.000000    -0.000000
   22    -1.000000   180.000000     0.000000    -0.707107     0.707107     0.000000     0.000000    -0.000000
   23    -1.000000   180.000000     0.707107    -0.707107     0.000000     0.000000     0.000000    -0.000000
   24    -1.000000   180.000000     0.707107     0.000000    -0.707107     0.000000     0.000000    -0.000000
   25    -1.000000     0.000000     1.000000     0.000000     0.000000     0.750000     0.750000    -0.750000
   26    -1.000000   120.000000    -0.577350    -0.577350    -0.577350     0.750000     0.750000    -0.750000
   27    -1.000000   120.000000     0.577350     0.577350     0.577350     0.750000     0.750000    -0.750000
   28     1.000000    90.000000     0.000000     0.000000    -1.000000     0.750000     0.750000    -0.750000
   29     1.000000   180.000000     0.000000     0.707107     0.707107     0.750000     0.750000    -0.750000
   30     1.000000    90.000000     0.000000     1.000000     0.000000     0.750000     0.750000    -0.750000
   31    -1.000000   180.000000     0.000000     0.000000     1.000000     0.750000     0.750000    -0.750000
   32    -1.000000   120.000000    -0.577350     0.577350     0.577350     0.750000     0.750000    -0.750000
   33    -1.000000   120.000000    -0.577350     0.577350    -0.577350     0.750000     0.750000    -0.750000
   34     1.000000    90.000000     0.000000     0.000000     1.000000     0.750000     0.750000    -0.750000
   35     1.000000    90.000000    -1.000000     0.000000     0.000000     0.750000     0.750000    -0.750000
   36     1.000000   180.000000     0.707107     0.000000     0.707107     0.750000     0.750000    -0.750000
   37    -1.000000   120.000000     0.577350    -0.577350     0.577350     0.750000     0.750000    -0.750000
   38    -1.000000   120.000000    -0.577350    -0.577350     0.577350     0.750000     0.750000    -0.750000
   39    -1.000000   180.000000     1.000000     0.000000     0.000000     0.750000     0.750000    -0.750000
   40     1.000000    90.000000     0.000000    -1.000000     0.000000     0.750000     0.750000    -0.750000
   41     1.000000   180.000000     0.707107     0.707107     0.000000     0.750000     0.750000    -0.750000
   42     1.000000    90.000000     1.000000     0.000000     0.000000     0.750000     0.750000    -0.750000
   43    -1.000000   120.000000     0.577350    -0.577350    -0.577350     0.750000     0.750000    -0.750000
   44    -1.000000   180.000000     0.000000     1.000000     0.000000     0.750000     0.750000    -0.750000
   45    -1.000000   120.000000     0.577350     0.577350    -0.577350     0.750000     0.750000    -0.750000
   46     1.000000   180.000000     0.000000    -0.707107     0.707107     0.750000     0.750000    -0.750000
   47     1.000000   180.000000     0.707107    -0.707107     0.000000     0.750000     0.750000    -0.750000
   48     1.000000   180.000000     0.707107     0.000000    -0.707107     0.750000     0.750000    -0.750000
 
 Subroutine IBZKPT returns following result:
 ===========================================
 
 Found     84 irreducible k-points:
 
 Following reciprocal coordinates:
            Coordinates               Weight
  0.000000  0.000000  0.000000      1.000000
  0.083333  0.000000  0.000000      6.000000
  0.166667  0.000000  0.000000      6.000000
  0.250000  0.000000  0.000000      6.000000
  0.333333  0.000000  0.000000      6.000000
  0.416667  0.000000  0.000000      6.000000
  0.500000  0.000000  0.000000      3.000000
  0.083333  0.083333  0.000000     12.000000
  0.166667  0.083333  0.000000     24.000000
  0.250000  0.083333  0.000000     24.000000
  0.333333  0.083333  0.000000     24.000000
  0.416667  0.083333  0.000000     24.000000
  0.500000  0.083333  0.000000     12.000000
  0.166667  0.166667  0.000000     12.000000
  0.250000  0.166667  0.000000     24.000000
  0.333333  0.166667  0.000000     24.000000
  0.416667  0.166667  0.000000     24.000000
  0.500000  0.166667  0.000000     12.000000
  0.250000  0.250000  0.000000     12.000000
  0.333333  0.250000  0.000000     24.000000
  0.416667  0.250000  0.000000     24.000000
  0.500000  0.250000  0.000000     12.000000
  0.333333  0.333333  0.000000     12.000000
  0.416667  0.333333  0.000000     24.000000
  0.500000  0.333333  0.000000     12.000000
  0.416667  0.416667  0.000000     12.000000
  0.500000  0.416667  0.000000     12.000000
  0.500000  0.500000  0.000000      3.000000
  0.083333  0.083333  0.083333      8.000000
  0.166667  0.083333  0.083333     24.000000
  0.250000  0.083333  0.083333     24.000000
  0.333333  0.083333  0.083333     24.000000
  0.416667  0.083333  0.083333     24.000000
  0.500000  0.083333  0.083333     12.000000
  0.166667  0.166667  0.083333     24.000000
  0.250000  0.166667  0.083333     48.000000
  0.333333  0.166667  0.083333     48.000000
  0.416667  0.166667  0.083333     48.000000
  0.500000  0.166667  0.083333     24.000000
  0.250000  0.250000  0.083333     24.000000
  0.333333  0.250000  0.083333     48.000000
  0.416667  0.250000  0.083333     48.000000
  0.500000  0.250000  0.083333     24.000000
  0.333333  0.333333  0.083333     24.000000
  0.416667  0.333333  0.083333     48.000000
  0.500000  0.333333  0.083333     24.000000
  0.416667  0.416667  0.083333     24.000000
  0.500000  0.416667  0.083333     24.000000
  0.500000  0.500000  0.083333      6.000000
  0.166667  0.166667  0.166667      8.000000
  0.250000  0.166667  0.166667     24.000000
  0.333333  0.166667  0.166667     24.000000
  0.416667  0.166667  0.166667     24.000000
  0.500000  0.166667  0.166667     12.000000
  0.250000  0.250000  0.166667     24.000000
  0.333333  0.250000  0.166667     48.000000
  0.416667  0.250000  0.166667     48.000000
  0.500000  0.250000  0.166667     24.000000
  0.333333  0.333333  0.166667     24.000000
  0.416667  0.333333  0.166667     48.000000
  0.500000  0.333333  0.166667     24.000000
  0.416667  0.416667  0.166667     24.000000
  0.500000  0.416667  0.166667     24.000000
  0.500000  0.500000  0.166667      6.000000
  0.250000  0.250000  0.250000      8.000000
  0.333333  0.250000  0.250000     24.000000
  0.416667  0.250000  0.250000     24.000000
  0.500000  0.250000  0.250000     12.000000
  0.333333  0.333333  0.250000     24.000000
  0.416667  0.333333  0.250000     48.000000
  0.500000  0.333333  0.250000     24.000000
  0.416667  0.416667  0.250000     24.000000
  0.500000  0.416667  0.250000     24.000000
  0.500000  0.500000  0.250000      6.000000
  0.333333  0.333333  0.333333      8.000000
  0.416667  0.333333  0.333333     24.000000
  0.500000  0.333333  0.333333     12.000000
  0.416667  0.416667  0.333333     24.000000
  0.500000  0.416667  0.333333     24.000000
  0.500000  0.500000  0.333333      6.000000
  0.416667  0.416667  0.416667      8.000000
  0.500000  0.416667  0.416667     12.000000
  0.500000  0.500000  0.416667      6.000000
  0.500000  0.500000  0.500000      1.000000
 
 Following cartesian coordinates:
            Coordinates               Weight
  0.000000  0.000000  0.000000      1.000000
  0.015334  0.000000  0.000000      6.000000
  0.030669  0.000000  0.000000      6.000000
  0.046003  0.000000  0.000000      6.000000
  0.061337  0.000000  0.000000      6.000000
  0.076671  0.000000  0.000000      6.000000
  0.092006  0.000000  0.000000      3.000000
  0.015334  0.015334  0.000000     12.000000
  0.030669  0.015334  0.000000     24.000000
  0.046003  0.015334  0.000000     24.000000
  0.061337  0.015334  0.000000     24.000000
  0.076671  0.015334  0.000000     24.000000
  0.092006  0.015334  0.000000     12.000000
  0.030669  0.030669  0.000000     12.000000
  0.046003  0.030669  0.000000     24.000000
  0.061337  0.030669  0.000000     24.000000
  0.076671  0.030669  0.000000     24.000000
  0.092006  0.030669  0.000000     12.000000
  0.046003  0.046003  0.000000     12.000000
  0.061337  0.046003  0.000000     24.000000
  0.076671  0.046003  0.000000     24.000000
  0.092006  0.046003  0.000000     12.000000
  0.061337  0.061337  0.000000     12.000000
  0.076671  0.061337  0.000000     24.000000
  0.092006  0.061337  0.000000     12.000000
  0.076671  0.076671  0.000000     12.000000
  0.092006  0.076671  0.000000     12.000000
  0.092006  0.092006  0.000000      3.000000
  0.015334  0.015334  0.015334      8.000000
  0.030669  0.015334  0.015334     24.000000
  0.046003  0.015334  0.015334     24.000000
  0.061337  0.015334  0.015334     24.000000
  0.076671  0.015334  0.015334     24.000000
  0.092006  0.015334  0.015334     12.000000
  0.030669  0.030669  0.015334     24.000000
  0.046003  0.030669  0.015334     48.000000
  0.061337  0.030669  0.015334     48.000000
  0.076671  0.030669  0.015334     48.000000
  0.092006  0.030669  0.015334     24.000000
  0.046003  0.046003  0.015334     24.000000
  0.061337  0.046003  0.015334     48.000000
  0.076671  0.046003  0.015334     48.000000
  0.092006  0.046003  0.015334     24.000000
  0.061337  0.061337  0.015334     24.000000
  0.076671  0.061337  0.015334     48.000000
  0.092006  0.061337  0.015334     24.000000
  0.076671  0.076671  0.015334     24.000000
  0.092006  0.076671  0.015334     24.000000
  0.092006  0.092006  0.015334      6.000000
  0.030669  0.030669  0.030669      8.000000
  0.046003  0.030669  0.030669     24.000000
  0.061337  0.030669  0.030669     24.000000
  0.076671  0.030669  0.030669     24.000000
  0.092006  0.030669  0.030669     12.000000
  0.046003  0.046003  0.030669     24.000000
  0.061337  0.046003  0.030669     48.000000
  0.076671  0.046003  0.030669     48.000000
  0.092006  0.046003  0.030669     24.000000
  0.061337  0.061337  0.030669     24.000000
  0.076671  0.061337  0.030669     48.000000
  0.092006  0.061337  0.030669     24.000000
  0.076671  0.076671  0.030669     24.000000
  0.092006  0.076671  0.030669     24.000000
  0.092006  0.092006  0.030669      6.000000
  0.046003  0.046003  0.046003      8.000000
  0.061337  0.046003  0.046003     24.000000
  0.076671  0.046003  0.046003     24.000000
  0.092006  0.046003  0.046003     12.000000
  0.061337  0.061337  0.046003     24.000000
  0.076671  0.061337  0.046003     48.000000
  0.092006  0.061337  0.046003     24.000000
  0.076671  0.076671  0.046003     24.000000
  0.092006  0.076671  0.046003     24.000000
  0.092006  0.092006  0.046003      6.000000
  0.061337  0.061337  0.061337      8.000000
  0.076671  0.061337  0.061337     24.000000
  0.092006  0.061337  0.061337     12.000000
  0.076671  0.076671  0.061337     24.000000
  0.092006  0.076671  0.061337     24.000000
  0.092006  0.092006  0.061337      6.000000
  0.076671  0.076671  0.076671      8.000000
  0.092006  0.076671  0.076671     12.000000
  0.092006  0.092006  0.076671      6.000000
  0.092006  0.092006  0.092006      1.000000
 
 TETIRR: Found    854 inequivalent tetrahedra from    10368


--------------------------------------------------------------------------------------------------------




 Dimension of arrays:
   k-points           NKPTS =     84   k-points in BZ     NKDIM =     84   number of bands    NBANDS=     22
   number of dos      NEDOS =    301   number of ions     NIONS =      8
   non local maximal  LDIM  =      4   non local SUM 2l+1 LMDIM =      8
   total plane-waves  NPLWV =  46656
   max r-space proj   IRMAX =      1   max aug-charges    IRDMAX=   9918
   dimension x,y,z NGX =    36 NGY =   36 NGZ =   36
   dimension x,y,z NGXF=    72 NGYF=   72 NGZF=   72
   support grid    NGXF=    72 NGYF=   72 NGZF=   72
   ions per type =               8
 NGX,Y,Z   is equivalent  to a cutoff of  11.01, 11.01, 11.01 a.u.
 NGXF,Y,Z  is equivalent  to a cutoff of  22.03, 22.03, 22.03 a.u.


 I would recommend the setting:
   dimension x,y,z NGX =    35 NGY =   35 NGZ =   35
 SYSTEM =  Si                                      
 POSCAR =  Si8                                     

 Startparameter for this run:
   NWRITE =      2    write-flag & timer
   PREC   = accura    normal or accurate (medium, high low for compatibility)
   ISTART =      0    job   : 0-new  1-cont  2-samecut
   ICHARG =      2    charge: 1-file 2-atom 10-const
   ISPIN  =      1    spin polarized calculation?
   LNONCOLLINEAR =      F non collinear calculations
   LSORBIT =      F    spin-orbit coupling
   INIWAV =      1    electr: 0-lowe 1-rand  2-diag
   LASPH  =      F    aspherical Exc in radial PAW
   METAGGA=      F    non-selfconsistent MetaGGA calc.

 Electronic Relaxation 1
   ENCUT  =  400.0 eV  29.40 Ry    5.42 a.u.   8.86  8.86  8.86*2*pi/ulx,y,z
   ENINI  =  400.0     initial cutoff
   ENAUG  =  322.1 eV  augmentation charge cutoff
   NELM   =     40;   NELMIN=  4; NELMDL= -5     # of ELM steps 
   EDIFF  = 0.1E-05   stopping-criterion for ELM
   LREAL  =      F    real-space projection
   NLSPLINE    = F    spline interpolate recip. space projectors
   LCOMPAT=      F    compatible to vasp.4.4
   GGA_COMPAT  = T    GGA compatible to vasp.4.4-vasp.4.6
   LMAXPAW     = -100 max onsite density
   LMAXMIX     =    2 max onsite mixed and CHGCAR
   VOSKOWN=      0    Vosko Wilk Nusair interpolation
   ROPT   =    0.00000
 Ionic relaxation
   EDIFFG = -.1E-03   stopping-criterion for IOM
   NSW    =    200    number of steps for IOM
   NBLOCK =      1;   KBLOCK =    200    inner block; outer block 
   IBRION =      2    ionic relax: 0-MD 1-quasi-New 2-CG
   NFREE  =      1    steps in history (QN), initial steepest desc. (CG)
   ISIF   =      2    stress and relaxation
   IWAVPR =     11    prediction:  0-non 1-charg 2-wave 3-comb
   ISYM   =      2    0-nonsym 1-usesym 2-fastsym
   LCORR  =      T    Harris-Foulkes like correction to forces

   POTIM  = 0.3000    time-step for ionic-motion
   TEIN   =    0.0    initial temperature
   TEBEG  =    0.0;   TEEND  =   0.0 temperature during run
   SMASS  =  -3.00    Nose mass-parameter (am)
   estimated Nose-frequenzy (Omega)   =  0.10E-29 period in steps =****** mass=  -0.675E-27a.u.
   SCALEE = 1.0000    scale energy and forces
   NPACO  =    256;   APACO  = 16.0  distance and # of slots for P.C.
   PSTRESS=    0.0 pullay stress

  Mass of Ions in am
   POMASS =  28.09
  Ionic Valenz
   ZVAL   =   4.00
  Atomic Wigner-Seitz radii
   RWIGS  =  -1.00
  virtual crystal weights 
   VCA    =   1.00
   NELECT =      32.0000    total number of electrons
   NUPDOWN=      -1.0000    fix difference up-down

 DOS related values:
   EMIN   =  10.00;   EMAX   =-10.00  energy-range for DOS
   EFERMI =   0.00
   ISMEAR =    -5;   SIGMA  =   0.05  broadening in eV -4-tet -1-fermi 0-gaus

 Electronic relaxation 2 (details)
   IALGO  =     68    algorithm
   LDIAG  =      T    sub-space diagonalisation (order eigenvalues)
   LSUBROT=      F    optimize rotation matrix (better conditioning)
   TURBO    =      0    0=normal 1=particle mesh
   IRESTART =      0    0=no restart 2=restart with 2 vectors
   NREBOOT  =      0    no. of reboots
   NMIN     =      0    reboot dimension
   EREF     =   0.00    reference energy to select bands
   IMIX   =      4    mixing-type and parameters
     AMIX     =   0.40;   BMIX     =  1.00
     AMIX_MAG =   1.60;   BMIX_MAG =  1.00
     AMIN     =   0.10
     WC   =   100.;   INIMIX=   1;  MIXPRE=   1;  MAXMIX=  40

 Intra band minimization:
   WEIMIN = 0.0010     energy-eigenvalue tresh-hold
   EBREAK =  0.11E-07  absolut break condition
   DEPER  =   0.30     relativ break condition  

   TIME   =   0.40     timestep for ELM

  volume/ion in A,a.u.               =      20.06       135.39
  Fermi-wavevector in a.u.,A,eV,Ry     =   0.956391  1.807317 12.445035  0.914684
  Thomas-Fermi vector in A             =   2.085315

 Write flags
   LWAVE  =      F    write WAVECAR
   LCHARG =      F    write CHGCAR
   LVTOT  =      F    write LOCPOT, total local potential
   LVHAR  =      F    write LOCPOT, Hartree potential only
   LELF   =      F    write electronic localiz. function (ELF)
   LORBIT =      0    0 simple, 1 ext, 2 COOP (PROOUT)


 Dipole corrections
   LMONO  =      F    monopole corrections only (constant potential shift)
   LDIPOL =      F    correct potential (dipole corrections)
   IDIPOL =      0    1-x, 2-y, 3-z, 4-all directions 
   EPSILON=  1.0000000 bulk dielectric constant

 Exchange correlation treatment:
   GGA     =    PS    GGA type
   LEXCH   =    14    internal setting for exchange type
   VOSKOWN=      0    Vosko Wilk Nusair interpolation
   LHFCALC =     F    Hartree Fock is set to
   LHFONE  =     F    Hartree Fock one center treatment
   AEXX    =    0.0000 exact exchange contribution

 Linear response parameters
   LEPSILON=     F    determine dielectric tensor
   LRPA    =     F    only Hartree local field effects (RPA)
   LNABLA  =     F    use nabla operator in PAW spheres
   LVEL    =     F    velocity operator in full k-point grid
   LINTERFAST=   F  fast interpolation
   KINTER  =     0    interpolate to denser k-point grid
   CSHIFT  =0.1000    complex shift for real part using Kramers Kronig
   OMEGAMAX=  -1.0    maximum frequency
   DEG_THRESHOLD= 0.2000000E-02 threshold for treating states as degnerate
   RTIME   =    0.100 relaxation time in fs

 Orbital magnetization related:
   ORBITALMAG=     F  switch on orbital magnetization
   LCHIMAG   =     F  perturbation theory with respect to B field
   DQ        =  0.001000  dq finite difference perturbation B field



--------------------------------------------------------------------------------------------------------


 conjugate gradient relaxation of ions
 charge density and potential will be updated during run
 non-spin polarized calculation
 RMM-DIIS sequential band-by-band and
  variant of blocked Davidson during initial phase
 perform sub-space diagonalisation
    before iterative eigenvector-optimisation
 modified Broyden-mixing scheme, WC =      100.0
 initial mixing is a Kerker type mixing with AMIX =  0.4000 and BMIX =      1.0000
 Hartree-type preconditioning will be used
 using additional bands            6
 reciprocal scheme for non local part
 use partial core corrections
 calculate Harris-corrections to forces   (improved forces if not selfconsistent)
 use gradient corrections 
 use of overlap-Matrix (Vanderbilt PP)
 Fermi weights with tetrahedron method with Bloechl corrections


--------------------------------------------------------------------------------------------------------


  energy-cutoff  :      400.00
  volume of cell :      160.50
      direct lattice vectors                 reciprocal lattice vectors
     5.434453573  0.000000000 -0.000000000     0.184011141  0.000000000  0.000000000
    -0.000000000  5.434453573  0.000000000     0.000000000  0.184011141  0.000000000
    -0.000000000 -0.000000000  5.434453573     0.000000000  0.000000000  0.184011141

  length of vectors
     5.434453573  5.434453573  5.434453573     0.184011141  0.184011141  0.184011141



 k-points in units of 2pi/SCALE and weight: Automatic                               
   0.00000000  0.00000000  0.00000000       0.001
   0.01533426  0.00000000  0.00000000       0.003
   0.03066852  0.00000000  0.00000000       0.003
   0.04600279  0.00000000  0.00000000       0.003
   0.06133705  0.00000000  0.00000000       0.003
   0.07667131  0.00000000  0.00000000       0.003
   0.09200557  0.00000000  0.00000000       0.002
   0.01533426  0.01533426  0.00000000       0.007
   0.03066852  0.01533426  0.00000000       0.014
   0.04600279  0.01533426  0.00000000       0.014
   0.06133705  0.01533426  0.00000000       0.014
   0.07667131  0.01533426  0.00000000       0.014
   0.09200557  0.01533426  0.00000000       0.007
   0.03066852  0.03066852  0.00000000       0.007
   0.04600279  0.03066852  0.00000000       0.014
   0.06133705  0.03066852  0.00000000       0.014
   0.07667131  0.03066852  0.00000000       0.014
   0.09200557  0.03066852  0.00000000       0.007
   0.04600279  0.04600279  0.00000000       0.007
   0.06133705  0.04600279  0.00000000       0.014
   0.07667131  0.04600279  0.00000000       0.014
   0.09200557  0.04600279  0.00000000       0.007
   0.06133705  0.06133705  0.00000000       0.007
   0.07667131  0.06133705  0.00000000       0.014
   0.09200557  0.06133705  0.00000000       0.007
   0.07667131  0.07667131  0.00000000       0.007
   0.09200557  0.07667131  0.00000000       0.007
   0.09200557  0.09200557  0.00000000       0.002
   0.01533426  0.01533426  0.01533426       0.005
   0.03066852  0.01533426  0.01533426       0.014
   0.04600279  0.01533426  0.01533426       0.014
   0.06133705  0.01533426  0.01533426       0.014
   0.07667131  0.01533426  0.01533426       0.014
   0.09200557  0.01533426  0.01533426       0.007
   0.03066852  0.03066852  0.01533426       0.014
   0.04600279  0.03066852  0.01533426       0.028
   0.06133705  0.03066852  0.01533426       0.028
   0.07667131  0.03066852  0.01533426       0.028
   0.09200557  0.03066852  0.01533426       0.014
   0.04600279  0.04600279  0.01533426       0.014
   0.06133705  0.04600279  0.01533426       0.028
   0.07667131  0.04600279  0.01533426       0.028
   0.09200557  0.04600279  0.01533426       0.014
   0.06133705  0.06133705  0.01533426       0.014
   0.07667131  0.06133705  0.01533426       0.028
   0.09200557  0.06133705  0.01533426       0.014
   0.07667131  0.07667131  0.01533426       0.014
   0.09200557  0.07667131  0.01533426       0.014
   0.09200557  0.09200557  0.01533426       0.003
   0.03066852  0.03066852  0.03066852       0.005
   0.04600279  0.03066852  0.03066852       0.014
   0.06133705  0.03066852  0.03066852       0.014
   0.07667131  0.03066852  0.03066852       0.014
   0.09200557  0.03066852  0.03066852       0.007
   0.04600279  0.04600279  0.03066852       0.014
   0.06133705  0.04600279  0.03066852       0.028
   0.07667131  0.04600279  0.03066852       0.028
   0.09200557  0.04600279  0.03066852       0.014
   0.06133705  0.06133705  0.03066852       0.014
   0.07667131  0.06133705  0.03066852       0.028
   0.09200557  0.06133705  0.03066852       0.014
   0.07667131  0.07667131  0.03066852       0.014
   0.09200557  0.07667131  0.03066852       0.014
   0.09200557  0.09200557  0.03066852       0.003
   0.04600279  0.04600279  0.04600279       0.005
   0.06133705  0.04600279  0.04600279       0.014
   0.07667131  0.04600279  0.04600279       0.014
   0.09200557  0.04600279  0.04600279       0.007
   0.06133705  0.06133705  0.04600279       0.014
   0.07667131  0.06133705  0.04600279       0.028
   0.09200557  0.06133705  0.04600279       0.014
   0.07667131  0.07667131  0.04600279       0.014
   0.09200557  0.07667131  0.04600279       0.014
   0.09200557  0.09200557  0.04600279       0.003
   0.06133705  0.06133705  0.06133705       0.005
   0.07667131  0.06133705  0.06133705       0.014
   0.09200557  0.06133705  0.06133705       0.007
   0.07667131  0.07667131  0.06133705       0.014
   0.09200557  0.07667131  0.06133705       0.014
   0.09200557  0.09200557  0.06133705       0.003
   0.07667131  0.07667131  0.07667131       0.005
   0.09200557  0.07667131  0.07667131       0.007
   0.09200557  0.09200557  0.07667131       0.003
   0.09200557  0.09200557  0.09200557       0.001

 k-points in reciprocal lattice and weights: Automatic                               
   0.00000000  0.00000000  0.00000000       0.001
   0.08333333  0.00000000  0.00000000       0.003
   0.16666667  0.00000000  0.00000000       0.003
   0.25000000  0.00000000  0.00000000       0.003
   0.33333333  0.00000000  0.00000000       0.003
   0.41666667  0.00000000  0.00000000       0.003
   0.50000000  0.00000000  0.00000000       0.002
   0.08333333  0.08333333  0.00000000       0.007
   0.16666667  0.08333333  0.00000000       0.014
   0.25000000  0.08333333  0.00000000       0.014
   0.33333333  0.08333333  0.00000000       0.014
   0.41666667  0.08333333  0.00000000       0.014
   0.50000000  0.08333333  0.00000000       0.007
   0.16666667  0.16666667  0.00000000       0.007
   0.25000000  0.16666667  0.00000000       0.014
   0.33333333  0.16666667  0.00000000       0.014
   0.41666667  0.16666667  0.00000000       0.014
   0.50000000  0.16666667  0.00000000       0.007
   0.25000000  0.25000000  0.00000000       0.007
   0.33333333  0.25000000  0.00000000       0.014
   0.41666667  0.25000000  0.00000000       0.014
   0.50000000  0.25000000  0.00000000       0.007
   0.33333333  0.33333333  0.00000000       0.007
   0.41666667  0.33333333  0.00000000       0.014
   0.50000000  0.33333333  0.00000000       0.007
   0.41666667  0.41666667  0.00000000       0.007
   0.50000000  0.41666667  0.00000000       0.007
   0.50000000  0.50000000  0.00000000       0.002
   0.08333333  0.08333333  0.08333333       0.005
   0.16666667  0.08333333  0.08333333       0.014
   0.25000000  0.08333333  0.08333333       0.014
   0.33333333  0.08333333  0.08333333       0.014
   0.41666667  0.08333333  0.08333333       0.014
   0.50000000  0.08333333  0.08333333       0.007
   0.16666667  0.16666667  0.08333333       0.014
   0.25000000  0.16666667  0.08333333       0.028
   0.33333333  0.16666667  0.08333333       0.028
   0.41666667  0.16666667  0.08333333       0.028
   0.50000000  0.16666667  0.08333333       0.014
   0.25000000  0.25000000  0.08333333       0.014
   0.33333333  0.25000000  0.08333333       0.028
   0.41666667  0.25000000  0.08333333       0.028
   0.50000000  0.25000000  0.08333333       0.014
   0.33333333  0.33333333  0.08333333       0.014
   0.41666667  0.33333333  0.08333333       0.028
   0.50000000  0.33333333  0.08333333       0.014
   0.41666667  0.41666667  0.08333333       0.014
   0.50000000  0.41666667  0.08333333       0.014
   0.50000000  0.50000000  0.08333333       0.003
   0.16666667  0.16666667  0.16666667       0.005
   0.25000000  0.16666667  0.16666667       0.014
   0.33333333  0.16666667  0.16666667       0.014
   0.41666667  0.16666667  0.16666667       0.014
   0.50000000  0.16666667  0.16666667       0.007
   0.25000000  0.25000000  0.16666667       0.014
   0.33333333  0.25000000  0.16666667       0.028
   0.41666667  0.25000000  0.16666667       0.028
   0.50000000  0.25000000  0.16666667       0.014
   0.33333333  0.33333333  0.16666667       0.014
   0.41666667  0.33333333  0.16666667       0.028
   0.50000000  0.33333333  0.16666667       0.014
   0.41666667  0.41666667  0.16666667       0.014
   0.50000000  0.41666667  0.16666667       0.014
   0.50000000  0.50000000  0.16666667       0.003
   0.25000000  0.25000000  0.25000000       0.005
   0.33333333  0.25000000  0.25000000       0.014
   0.41666667  0.25000000  0.25000000       0.014
   0.50000000  0.25000000  0.25000000       0.007
   0.33333333  0.33333333  0.25000000       0.014
   0.41666667  0.33333333  0.25000000       0.028
   0.50000000  0.33333333  0.25000000       0.014
   0.41666667  0.41666667  0.25000000       0.014
   0.50000000  0.41666667  0.25000000       0.014
   0.50000000  0.50000000  0.25000000       0.003
   0.33333333  0.33333333  0.33333333       0.005
   0.41666667  0.33333333  0.33333333       0.014
   0.50000000  0.33333333  0.33333333       0.007
   0.41666667  0.41666667  0.33333333       0.014
   0.50000000  0.41666667  0.33333333       0.014
   0.50000000  0.50000000  0.33333333       0.003
   0.41666667  0.41666667  0.41666667       0.005
   0.50000000  0.41666667  0.41666667       0.007
   0.50000000  0.50000000  0.41666667       0.003
   0.50000000  0.50000000  0.50000000       0.001

 position of ions in fractional coordinates (direct lattice) 
   0.00000000  0.00000000  0.00000000
   0.75000000  0.75000000  0.25000000
   0.00000000  0.50000000  0.50000000
   0.75000000  0.25000000  0.75000000
   0.50000000  0.00000000  0.50000000
   0.25000000  0.75000000  0.75000000
   0.50000000  0.50000000  0.00000000
   0.25000000  0.25000000  0.25000000

 position of ions in cartesian coordinates  (Angst):
   0.00000000  0.00000000  0.00000000
   4.07584018  4.07584018  1.35861339
   0.00000000  2.71722679  2.71722679
   4.07584018  1.35861339  4.07584018
   2.71722679  0.00000000  2.71722679
   1.35861339  4.07584018  4.07584018
   2.71722679  2.71722679  0.00000000
   1.35861339  1.35861339  1.35861339



--------------------------------------------------------------------------------------------------------


 k-point  1 :   0.0000 0.0000 0.0000  plane waves:    2945
 k-point  2 :   0.0833 0.0000 0.0000  plane waves:    2929
 k-point  3 :   0.1667 0.0000 0.0000  plane waves:    2910
 k-point  4 :   0.2500 0.0000 0.0000  plane waves:    2902
 k-point  5 :   0.3333 0.0000 0.0000  plane waves:    2910
 k-point  6 :   0.4167 0.0000 0.0000  plane waves:    2894
 k-point  7 :   0.5000 0.0000 0.0000  plane waves:    2906
 k-point  8 :   0.0833 0.0833 0.0000  plane waves:    2915
 k-point  9 :   0.1667 0.0833 0.0000  plane waves:    2923
 k-point 10 :   0.2500 0.0833 0.0000  plane waves:    2913
 k-point 11 :   0.3333 0.0833 0.0000  plane waves:    2900
 k-point 12 :   0.4167 0.0833 0.0000  plane waves:    2908
 k-point 13 :   0.5000 0.0833 0.0000  plane waves:    2898
 k-point 14 :   0.1667 0.1667 0.0000  plane waves:    2911
 k-point 15 :   0.2500 0.1667 0.0000  plane waves:    2918
 k-point 16 :   0.3333 0.1667 0.0000  plane waves:    2916
 k-point 17 :   0.4167 0.1667 0.0000  plane waves:    2914
 k-point 18 :   0.5000 0.1667 0.0000  plane waves:    2906
 k-point 19 :   0.2500 0.2500 0.0000  plane waves:    2917
 k-point 20 :   0.3333 0.2500 0.0000  plane waves:    2924
 k-point 21 :   0.4167 0.2500 0.0000  plane waves:    2913
 k-point 22 :   0.5000 0.2500 0.0000  plane waves:    2918
 k-point 23 :   0.3333 0.3333 0.0000  plane waves:    2906
 k-point 24 :   0.4167 0.3333 0.0000  plane waves:    2914
 k-point 25 :   0.5000 0.3333 0.0000  plane waves:    2914
 k-point 26 :   0.4167 0.4167 0.0000  plane waves:    2928
 k-point 27 :   0.5000 0.4167 0.0000  plane waves:    2916
 k-point 28 :   0.5000 0.5000 0.0000  plane waves:    2968
 k-point 29 :   0.0833 0.0833 0.0833  plane waves:    2927
 k-point 30 :   0.1667 0.0833 0.0833  plane waves:    2912
 k-point 31 :   0.2500 0.0833 0.0833  plane waves:    2908
 k-point 32 :   0.3333 0.0833 0.0833  plane waves:    2903
 k-point 33 :   0.4167 0.0833 0.0833  plane waves:    2908
 k-point 34 :   0.5000 0.0833 0.0833  plane waves:    2912
 k-point 35 :   0.1667 0.1667 0.0833  plane waves:    2913
 k-point 36 :   0.2500 0.1667 0.0833  plane waves:    2921
 k-point 37 :   0.3333 0.1667 0.0833  plane waves:    2912
 k-point 38 :   0.4167 0.1667 0.0833  plane waves:    2903
 k-point 39 :   0.5000 0.1667 0.0833  plane waves:    2916
 k-point 40 :   0.2500 0.2500 0.0833  plane waves:    2918
 k-point 41 :   0.3333 0.2500 0.0833  plane waves:    2919
 k-point 42 :   0.4167 0.2500 0.0833  plane waves:    2908
 k-point 43 :   0.5000 0.2500 0.0833  plane waves:    2906
 k-point 44 :   0.3333 0.3333 0.0833  plane waves:    2913
 k-point 45 :   0.4167 0.3333 0.0833  plane waves:    2915
 k-point 46 :   0.5000 0.3333 0.0833  plane waves:    2914
 k-point 47 :   0.4167 0.4167 0.0833  plane waves:    2921
 k-point 48 :   0.5000 0.4167 0.0833  plane waves:    2924
 k-point 49 :   0.5000 0.5000 0.0833  plane waves:    2928
 k-point 50 :   0.1667 0.1667 0.1667  plane waves:    2905
 k-point 51 :   0.2500 0.1667 0.1667  plane waves:    2903
 k-point 52 :   0.3333 0.1667 0.1667  plane waves:    2919
 k-point 53 :   0.4167 0.1667 0.1667  plane waves:    2910
 k-point 54 :   0.5000 0.1667 0.1667  plane waves:    2922
 k-point 55 :   0.2500 0.2500 0.1667  plane waves:    2903
 k-point 56 :   0.3333 0.2500 0.1667  plane waves:    2917
 k-point 57 :   0.4167 0.2500 0.1667  plane waves:    2914
 k-point 58 :   0.5000 0.2500 0.1667  plane waves:    2914
 k-point 59 :   0.3333 0.3333 0.1667  plane waves:    2911
 k-point 60 :   0.4167 0.3333 0.1667  plane waves:    2918
 k-point 61 :   0.5000 0.3333 0.1667  plane waves:    2908
 k-point 62 :   0.4167 0.4167 0.1667  plane waves:    2912
 k-point 63 :   0.5000 0.4167 0.1667  plane waves:    2916
 k-point 64 :   0.5000 0.5000 0.1667  plane waves:    2936
 k-point 65 :   0.2500 0.2500 0.2500  plane waves:    2905
 k-point 66 :   0.3333 0.2500 0.2500  plane waves:    2911
 k-point 67 :   0.4167 0.2500 0.2500  plane waves:    2916
 k-point 68 :   0.5000 0.2500 0.2500  plane waves:    2916
 k-point 69 :   0.3333 0.3333 0.2500  plane waves:    2921
 k-point 70 :   0.4167 0.3333 0.2500  plane waves:    2921
 k-point 71 :   0.5000 0.3333 0.2500  plane waves:    2920
 k-point 72 :   0.4167 0.4167 0.2500  plane waves:    2924
 k-point 73 :   0.5000 0.4167 0.2500  plane waves:    2922
 k-point 74 :   0.5000 0.5000 0.2500  plane waves:    2920
 k-point 75 :   0.3333 0.3333 0.3333  plane waves:    2941
 k-point 76 :   0.4167 0.3333 0.3333  plane waves:    2928
 k-point 77 :   0.5000 0.3333 0.3333  plane waves:    2944
 k-point 78 :   0.4167 0.4167 0.3333  plane waves:    2938
 k-point 79 :   0.5000 0.4167 0.3333  plane waves:    2948
 k-point 80 :   0.5000 0.5000 0.3333  plane waves:    2936
 k-point 81 :   0.4167 0.4167 0.4167  plane waves:    2935
 k-point 82 :   0.5000 0.4167 0.4167  plane waves:    2936
 k-point 83 :   0.5000 0.5000 0.4167  plane waves:    2936
 k-point 84 :   0.5000 0.5000 0.5000  plane waves:    2872

 maximum and minimum number of plane-waves per node :       260      226

 maximum number of plane-waves:      2968
 maximum index in each direction: 
   IXMAX=    8   IYMAX=    8   IZMAX=    8
   IXMIN=   -9   IYMIN=   -9   IZMIN=   -9

 NGX is ok and might be reduce to  36
 NGY is ok and might be reduce to  36
 NGZ is ok and might be reduce to  36

 parallel 3D FFT for wavefunctions:
    minimum data exchange during FFTs selected (reduces bandwidth)
 parallel 3D FFT for charge:
    minimum data exchange during FFTs selected (reduces bandwidth)


 total amount of memory used by VASP on root node    36724. kBytes
========================================================================

   base      :      30000. kBytes
   nonl-proj :       1364. kBytes
   fftplans  :        656. kBytes
   grid      :        917. kBytes
   one-center:          3. kBytes
   wavefun   :       3784. kBytes

     INWAV:  cpu time    0.00: real time    0.00
 Broyden mixing: mesh for mixing (old mesh)
   NGX = 17   NGY = 17   NGZ = 17
  (NGX  = 72   NGY  = 72   NGZ  = 72)
  gives a total of   4913 points

 initial charge density was supplied:
 charge density of overlapping atoms calculated
 number of electron      32.0000000 magnetization 
 keeping initial charge density in first step


--------------------------------------------------------------------------------------------------------


 Maximum index for augmentation-charges          545 (set IRDMAX)


--------------------------------------------------------------------------------------------------------


 First call to EWALD:  gamma=   0.326
 Maximum number of real-space cells 3x 3x 3
 Maximum number of reciprocal cells 3x 3x 3

 FEWALD executed in parallel
    FEWALD:  cpu time    0.00: real time    0.00


----------------------------------------- Iteration    1(   1)  ---------------------------------------


    POTLOK:  cpu time    0.02: real time    0.02
    SETDIJ:  cpu time    0.00: real time    0.00
     EDDAV:  cpu time    1.42: real time    1.42
 BZINTS: Fermi energy: 11.654449; 32.000000 electrons
         Band energy: 114.023545;  BLOECHL correction: -0.149458
       DOS:  cpu time    0.03: real time    0.03
    --------------------------------------------
      LOOP:  cpu time    1.47: real time    1.48

 eigenvalue-minimisations  :  3696
 total energy-change (2. order) : 0.6223466E+02  (-0.1037814E+04)
 number of electron      32.0000000 magnetization 
 augmentation part       32.0000000 magnetization 

 Free energy of the ion-electron system (eV)
  ---------------------------------------------------
  alpha Z        PSCENC =        12.94008481
  Ewald energy   TEWEN  =      -913.50489486
  -Hartree energ DENC   =       -44.44683264
  -exchange      EXHF   =         0.00000000
  -V(xc)+E(xc)   XCENC  =       -70.45377535
  PAW double counting   =       263.04103494     -124.21452385
  entropy T*S    EENTRO =         0.00000000
  eigenvalues    EBANDS =       114.02354517
  atomic energy  EATOM  =       824.85002390
  ---------------------------------------------------
  free energy    TOTEN  =        62.23466212 eV

  energy without entropy =       62.23466212  energy(sigma->0) =       62.23466212


--------------------------------------------------------------------------------------------------------




----------------------------------------- Iteration    1(   2)  ---------------------------------------


     EDDAV:  cpu time    1.79: real time    1.79
 BZINTS: Fermi energy:  5.936807; 32.000000 electrons
         Band energy:  13.865010;  BLOECHL correction:  0.000000
       DOS:  cpu time    0.01: real time    0.01
    --------------------------------------------
      LOOP:  cpu time    1.80: real time    1.81

 eigenvalue-minimisations  :  4972
 total energy-change (2. order) :-0.1001585E+03  (-0.9427456E+02)
 number of electron      32.0000000 magnetization 
 augmentation part       32.0000000 magnetization 

 Free energy of the ion-electron system (eV)
  ---------------------------------------------------
  alpha Z        PSCENC =        12.94008481
  Ewald energy   TEWEN  =      -913.50489486
  -Hartree energ DENC   =       -44.44683264
  -exchange      EXHF   =         0.00000000
  -V(xc)+E(xc)   XCENC  =       -70.45377535
  PAW double counting   =       263.04103494     -124.21452385
  entropy T*S    EENTRO =         0.00000000
  eigenvalues    EBANDS =        13.86500993
  atomic energy  EATOM  =       824.85002390
  ---------------------------------------------------
  free energy    TOTEN  =       -37.92387312 eV

  energy without entropy =      -37.92387312  energy(sigma->0) =      -37.92387312


--------------------------------------------------------------------------------------------------------




----------------------------------------- Iteration    1(   3)  ---------------------------------------


     EDDAV:  cpu time    1.74: real time    1.74
 BZINTS: Fermi energy:  5.339680; 32.000000 electrons
         Band energy:   9.159588;  BLOECHL correction:  0.000000
       DOS:  cpu time    0.01: real time    0.01
    --------------------------------------------
      LOOP:  cpu time    1.75: real time    1.76

 eigenvalue-minimisations  :  4820
 total energy-change (2. order) :-0.4705422E+01  (-0.4637161E+01)
 number of electron      32.0000000 magnetization 
 augmentation part       32.0000000 magnetization 

 Free energy of the ion-electron system (eV)
  ---------------------------------------------------
  alpha Z        PSCENC =        12.94008481
  Ewald energy   TEWEN  =      -913.50489486
  -Hartree energ DENC   =       -44.44683264
  -exchange      EXHF   =         0.00000000
  -V(xc)+E(xc)   XCENC  =       -70.45377535
  PAW double counting   =       263.04103494     -124.21452385
  entropy T*S    EENTRO =         0.00000000
  eigenvalues    EBANDS =         9.15958751
  atomic energy  EATOM  =       824.85002390
  ---------------------------------------------------
  free energy    TOTEN  =       -42.62929554 eV

  energy without entropy =      -42.62929554  energy(sigma->0) =      -42.62929554


--------------------------------------------------------------------------------------------------------




----------------------------------------- Iteration    1(   4)  ---------------------------------------


     EDDAV:  cpu time    1.65: real time    1.65
 BZINTS: Fermi energy:  5.301414; 32.000000 electrons
         Band energy:   9.073907;  BLOECHL correction:  0.000000
       DOS:  cpu time    0.01: real time    0.01
    --------------------------------------------
      LOOP:  cpu time    1.66: real time    1.66

 eigenvalue-minimisations  :  4530
 total energy-change (2. order) :-0.8568033E-01  (-0.8545482E-01)
 number of electron      32.0000000 magnetization 
 augmentation part       32.0000000 magnetization 

 Free energy of the ion-electron system (eV)
  ---------------------------------------------------
  alpha Z        PSCENC =        12.94008481
  Ewald energy   TEWEN  =      -913.50489486
  -Hartree energ DENC   =       -44.44683264
  -exchange      EXHF   =         0.00000000
  -V(xc)+E(xc)   XCENC  =       -70.45377535
  PAW double counting   =       263.04103494     -124.21452385
  entropy T*S    EENTRO =         0.00000000
  eigenvalues    EBANDS =         9.07390719
  atomic energy  EATOM  =       824.85002390
  ---------------------------------------------------
  free energy    TOTEN  =       -42.71497586 eV

  energy without entropy =      -42.71497586  energy(sigma->0) =      -42.71497586


--------------------------------------------------------------------------------------------------------




----------------------------------------- Iteration    1(   5)  ---------------------------------------


     EDDAV:  cpu time    1.74: real time    1.74
 BZINTS: Fermi energy:  5.269253; 32.000000 electrons
         Band energy:   9.071288;  BLOECHL correction:  0.000000
       DOS:  cpu time    0.00: real time    0.01
    CHARGE:  cpu time    0.12: real time    0.12
    MIXING:  cpu time    0.00: real time    0.00
    --------------------------------------------
      LOOP:  cpu time    1.87: real time    1.88

 eigenvalue-minimisations  :  4852
 total energy-change (2. order) :-0.2618713E-02  (-0.2617777E-02)
 number of electron      31.9999993 magnetization 
 augmentation part       -1.8844212 magnetization 

 Broyden mixing:
  rms(total) = 0.59292E+00    rms(broyden)= 0.59292E+00
  rms(prec ) = 0.10891E+01
  weight for this iteration     100.00

 Free energy of the ion-electron system (eV)
  ---------------------------------------------------
  alpha Z        PSCENC =        12.94008481
  Ewald energy   TEWEN  =      -913.50489486
  -Hartree energ DENC   =       -44.44683264
  -exchange      EXHF   =         0.00000000
  -V(xc)+E(xc)   XCENC  =       -70.45377535
  PAW double counting   =       263.04103494     -124.21452385
  entropy T*S    EENTRO =         0.00000000
  eigenvalues    EBANDS =         9.07128848
  atomic energy  EATOM  =       824.85002390
  ---------------------------------------------------
  free energy    TOTEN  =       -42.71759458 eV

  energy without entropy =      -42.71759458  energy(sigma->0) =      -42.71759458


--------------------------------------------------------------------------------------------------------




----------------------------------------- Iteration    1(   6)  ---------------------------------------


    POTLOK:  cpu time    0.01: real time    0.01
    SETDIJ:  cpu time    0.00: real time    0.00
    EDDIAG:  cpu time    0.40: real time    0.40
  RMM-DIIS:  cpu time    1.00: real time    1.00
    ORTHCH:  cpu time    0.02: real time    0.02
 BZINTS: Fermi energy:  5.521431; 32.000000 electrons
         Band energy:  14.760948;  BLOECHL correction:  0.000000
       DOS:  cpu time    0.01: real time    0.01
    CHARGE:  cpu time    0.12: real time    0.12
    MIXING:  cpu time    0.00: real time    0.00
    --------------------------------------------
      LOOP:  cpu time    1.56: real time    1.58

 eigenvalue-minimisations  :  3696
 total energy-change (2. order) : 0.5890335E+00  (-0.2978458E-01)
 number of electron      31.9999993 magnetization 
 augmentation part       -1.8649535 magnetization 

 Broyden mixing:
  rms(total) = 0.34829E+00    rms(broyden)= 0.34829E+00
  rms(prec ) = 0.63609E+00
  weight for this iteration     100.00

 eigenvalues of (default mixing * dielectric matrix)
  average eigenvalue GAMMA=   2.4063
  2.4063

 Free energy of the ion-electron system (eV)
  ---------------------------------------------------
  alpha Z        PSCENC =        12.94008481
  Ewald energy   TEWEN  =      -913.50489486
  -Hartree energ DENC   =       -50.05790365
  -exchange      EXHF   =         0.00000000
  -V(xc)+E(xc)   XCENC  =       -69.54878771
  PAW double counting   =       278.21324076     -139.78127196
  entropy T*S    EENTRO =         0.00000000
  eigenvalues    EBANDS =        14.76094762
  atomic energy  EATOM  =       824.85002390
  ---------------------------------------------------
  free energy    TOTEN  =       -42.12856109 eV

  energy without entropy =      -42.12856109  energy(sigma->0) =      -42.12856109


--------------------------------------------------------------------------------------------------------




----------------------------------------- Iteration    1(   7)  ---------------------------------------


    POTLOK:  cpu time    0.01: real time    0.01
    SETDIJ:  cpu time    0.00: real time    0.00
    EDDIAG:  cpu time    0.40: real time    0.40
  RMM-DIIS:  cpu time    1.00: real time    1.00
    ORTHCH:  cpu time    0.02: real time    0.02
 BZINTS: Fermi energy:  5.842117; 32.000000 electrons
         Band energy:  22.867273;  BLOECHL correction:  0.000000
       DOS:  cpu time    0.00: real time    0.01
    CHARGE:  cpu time    0.12: real time    0.12
    MIXING:  cpu time    0.00: real time    0.00
    --------------------------------------------
      LOOP:  cpu time    1.55: real time    1.57

 eigenvalue-minimisations  :  3696
 total energy-change (2. order) : 0.2712871E+00  (-0.6182278E-01)
 number of electron      31.9999993 magnetization 
 augmentation part       -1.8419685 magnetization 

 Broyden mixing:
  rms(total) = 0.28363E-01    rms(broyden)= 0.28363E-01
  rms(prec ) = 0.49715E-01
  weight for this iteration     100.00

 eigenvalues of (default mixing * dielectric matrix)
  average eigenvalue GAMMA=   2.4910
  2.4910  2.4910

 Free energy of the ion-electron system (eV)
  ---------------------------------------------------
  alpha Z        PSCENC =        12.94008481
  Ewald energy   TEWEN  =      -913.50489486
  -Hartree energ DENC   =       -58.87431252
  -exchange      EXHF   =         0.00000000
  -V(xc)+E(xc)   XCENC  =       -68.05305669
  PAW double counting   =       298.01668188     -160.09907400
  entropy T*S    EENTRO =         0.00000000
  eigenvalues    EBANDS =        22.86727347
  atomic energy  EATOM  =       824.85002390
  ---------------------------------------------------
  free energy    TOTEN  =       -41.85727401 eV

  energy without entropy =      -41.85727401  energy(sigma->0) =      -41.85727401


--------------------------------------------------------------------------------------------------------




----------------------------------------- Iteration    1(   8)  ---------------------------------------


    POTLOK:  cpu time    0.01: real time    0.01
    SETDIJ:  cpu time    0.00: real time    0.00
    EDDIAG:  cpu time    0.40: real time    0.40
  RMM-DIIS:  cpu time    1.00: real time    1.00
    ORTHCH:  cpu time    0.02: real time    0.02
 BZINTS: Fermi energy:  5.819793; 32.000000 electrons
         Band energy:  22.362850;  BLOECHL correction:  0.000000
       DOS:  cpu time    0.01: real time    0.01
    CHARGE:  cpu time    0.12: real time    0.12
    MIXING:  cpu time    0.00: real time    0.00
    --------------------------------------------
      LOOP:  cpu time    1.56: real time    1.57

 eigenvalue-minimisations  :  3722
 total energy-change (2. order) :-0.2371422E-02  (-0.1894258E-02)
 number of electron      31.9999993 magnetization 
 augmentation part       -1.8468888 magnetization 

 Broyden mixing:
  rms(total) = 0.33626E-02    rms(broyden)= 0.33620E-02
  rms(prec ) = 0.65130E-02
  weight for this iteration     100.00

 eigenvalues of (default mixing * dielectric matrix)
  average eigenvalue GAMMA=   2.1253
  1.3906  2.4926  2.4926

 Free energy of the ion-electron system (eV)
  ---------------------------------------------------
  alpha Z        PSCENC =        12.94008481
  Ewald energy   TEWEN  =      -913.50489486
  -Hartree energ DENC   =       -58.46629053
  -exchange      EXHF   =         0.00000000
  -V(xc)+E(xc)   XCENC  =       -68.04407827
  PAW double counting   =       294.40122966     -156.39857045
  entropy T*S    EENTRO =         0.00000000
  eigenvalues    EBANDS =        22.36285031
  atomic energy  EATOM  =       824.85002390
  ---------------------------------------------------
  free energy    TOTEN  =       -41.85964543 eV

  energy without entropy =      -41.85964543  energy(sigma->0) =      -41.85964543


--------------------------------------------------------------------------------------------------------




----------------------------------------- Iteration    1(   9)  ---------------------------------------


    POTLOK:  cpu time    0.01: real time    0.01
    SETDIJ:  cpu time    0.00: real time    0.00
    EDDIAG:  cpu time    0.40: real time    0.40
  RMM-DIIS:  cpu time    1.06: real time    1.06
    ORTHCH:  cpu time    0.02: real time    0.02
 BZINTS: Fermi energy:  5.821262; 32.000000 electrons
         Band energy:  22.413008;  BLOECHL correction:  0.000000
       DOS:  cpu time    0.01: real time    0.01
    CHARGE:  cpu time    0.12: real time    0.12
    MIXING:  cpu time    0.00: real time    0.00
    --------------------------------------------
      LOOP:  cpu time    1.61: real time    1.62

 eigenvalue-minimisations  :  3930
 total energy-change (2. order) :-0.1759763E-03  (-0.1187518E-03)
 number of electron      31.9999993 magnetization 
 augmentation part       -1.8473966 magnetization 

 Broyden mixing:
  rms(total) = 0.21275E-02    rms(broyden)= 0.21273E-02
  rms(prec ) = 0.33538E-02
  weight for this iteration     100.00

 eigenvalues of (default mixing * dielectric matrix)
  average eigenvalue GAMMA=   2.4529
  1.0339  3.8423  2.3148  2.6206

 Free energy of the ion-electron system (eV)
  ---------------------------------------------------
  alpha Z        PSCENC =        12.94008481
  Ewald energy   TEWEN  =      -913.50489486
  -Hartree energ DENC   =       -58.52789146
  -exchange      EXHF   =         0.00000000
  -V(xc)+E(xc)   XCENC  =       -68.02903398
  PAW double counting   =       294.48544406     -156.48656207
  entropy T*S    EENTRO =         0.00000000
  eigenvalues    EBANDS =        22.41300820
  atomic energy  EATOM  =       824.85002390
  ---------------------------------------------------
  free energy    TOTEN  =       -41.85982141 eV

  energy without entropy =      -41.85982141  energy(sigma->0) =      -41.85982141


--------------------------------------------------------------------------------------------------------




----------------------------------------- Iteration    1(  10)  ---------------------------------------


    POTLOK:  cpu time    0.01: real time    0.01
    SETDIJ:  cpu time    0.00: real time    0.00
    EDDIAG:  cpu time    0.40: real time    0.40
  RMM-DIIS:  cpu time    1.00: real time    1.00
    ORTHCH:  cpu time    0.02: real time    0.02
 BZINTS: Fermi energy:  5.818377; 32.000000 electrons
         Band energy:  22.432808;  BLOECHL correction:  0.000000
       DOS:  cpu time    0.01: real time    0.01
    CHARGE:  cpu time    0.12: real time    0.12
    MIXING:  cpu time    0.00: real time    0.00
    --------------------------------------------
      LOOP:  cpu time    1.56: real time    1.57

 eigenvalue-minimisations  :  3707
 total energy-change (2. order) :-0.3166290E-04  (-0.9782095E-05)
 number of electron      31.9999993 magnetization 
 augmentation part       -1.8473951 magnetization 

 Broyden mixing:
  rms(total) = 0.12095E-02    rms(broyden)= 0.12095E-02
  rms(prec ) = 0.18591E-02
  weight for this iteration     100.00

 eigenvalues of (default mixing * dielectric matrix)
  average eigenvalue GAMMA=   1.9580
  2.8476  2.4045  2.4045  1.0175  1.1158

 Free energy of the ion-electron system (eV)
  ---------------------------------------------------
  alpha Z        PSCENC =        12.94008481
  Ewald energy   TEWEN  =      -913.50489486
  -Hartree energ DENC   =       -58.53939801
  -exchange      EXHF   =         0.00000000
  -V(xc)+E(xc)   XCENC  =       -68.02847992
  PAW double counting   =       294.72027631     -156.73027316
  entropy T*S    EENTRO =         0.00000000
  eigenvalues    EBANDS =        22.43280786
  atomic energy  EATOM  =       824.85002390
  ---------------------------------------------------
  free energy    TOTEN  =       -41.85985307 eV

  energy without entropy =      -41.85985307  energy(sigma->0) =      -41.85985307


--------------------------------------------------------------------------------------------------------




----------------------------------------- Iteration    1(  11)  ---------------------------------------


    POTLOK:  cpu time    0.01: real time    0.01
    SETDIJ:  cpu time    0.00: real time    0.00
    EDDIAG:  cpu time    0.40: real time    0.40
  RMM-DIIS:  cpu time    0.90: real time    0.90
    ORTHCH:  cpu time    0.02: real time    0.02
 BZINTS: Fermi energy:  5.815139; 32.000000 electrons
         Band energy:  22.441263;  BLOECHL correction:  0.000000
       DOS:  cpu time    0.01: real time    0.01
    CHARGE:  cpu time    0.12: real time    0.12
    MIXING:  cpu time    0.00: real time    0.00
    --------------------------------------------
      LOOP:  cpu time    1.46: real time    1.47

 eigenvalue-minimisations  :  3278
 total energy-change (2. order) : 0.1354679E-05  (-0.1256841E-05)
 number of electron      31.9999993 magnetization 
 augmentation part       -1.8473950 magnetization 

 Broyden mixing:
  rms(total) = 0.22804E-03    rms(broyden)= 0.22802E-03
  rms(prec ) = 0.35899E-03
  weight for this iteration     100.00

 eigenvalues of (default mixing * dielectric matrix)
  average eigenvalue GAMMA=   2.0229
  2.9975  2.6017  2.3288  2.3288  0.9696  0.9109

 Free energy of the ion-electron system (eV)
  ---------------------------------------------------
  alpha Z        PSCENC =        12.94008481
  Ewald energy   TEWEN  =      -913.50489486
  -Hartree energ DENC   =       -58.55193040
  -exchange      EXHF   =         0.00000000
  -V(xc)+E(xc)   XCENC  =       -68.02634668
  PAW double counting   =       294.67973764     -156.68778906
  entropy T*S    EENTRO =         0.00000000
  eigenvalues    EBANDS =        22.44126293
  atomic energy  EATOM  =       824.85002390
  ---------------------------------------------------
  free energy    TOTEN  =       -41.85985172 eV

  energy without entropy =      -41.85985172  energy(sigma->0) =      -41.85985172


--------------------------------------------------------------------------------------------------------




----------------------------------------- Iteration    1(  12)  ---------------------------------------


    POTLOK:  cpu time    0.01: real time    0.01
    SETDIJ:  cpu time    0.00: real time    0.00
    EDDIAG:  cpu time    0.40: real time    0.40
  RMM-DIIS:  cpu time    0.68: real time    0.68
    ORTHCH:  cpu time    0.02: real time    0.02
 BZINTS: Fermi energy:  5.812373; 32.000000 electrons
         Band energy:  22.438370;  BLOECHL correction:  0.000000
       DOS:  cpu time    0.01: real time    0.01
    --------------------------------------------
      LOOP:  cpu time    1.12: real time    1.13

 eigenvalue-minimisations  :  2313
 total energy-change (2. order) : 0.6682642E-06  (-0.7460014E-07)
 number of electron      31.9999993 magnetization 
 augmentation part       -1.8473950 magnetization 

 Free energy of the ion-electron system (eV)
  ---------------------------------------------------
  alpha Z        PSCENC =        12.94008481
  Ewald energy   TEWEN  =      -913.50489486
  -Hartree energ DENC   =       -58.54912551
  -exchange      EXHF   =         0.00000000
  -V(xc)+E(xc)   XCENC  =       -68.02693667
  PAW double counting   =       294.65404261     -156.66141528
  entropy T*S    EENTRO =         0.00000000
  eigenvalues    EBANDS =        22.43836994
  atomic energy  EATOM  =       824.85002390
  ---------------------------------------------------
  free energy    TOTEN  =       -41.85985105 eV

  energy without entropy =      -41.85985105  energy(sigma->0) =      -41.85985105


--------------------------------------------------------------------------------------------------------




 average (electrostatic) potential at core
  the test charge radii are     0.9892
  (the norm of the test charge is              1.0000)
       1 -83.2459       2 -83.2459       3 -83.2459       4 -83.2459       5 -83.2459
       6 -83.2459       7 -83.2459       8 -83.2459



 E-fermi :   5.8124     XC(G=0):  -9.5464     alpha+bet :-11.9697


 k-point     1 :       0.0000    0.0000    0.0000
  band No.  band energies     occupation 
      1      -6.1933      2.00000
      2      -2.0405      2.00000
      3      -2.0405      2.00000
      4      -2.0405      2.00000
      5      -2.0405      2.00000
      6      -2.0405      2.00000
      7      -2.0405      2.00000
      8       2.9138      2.00000
      9       2.9138      2.00000
     10       2.9138      2.00000
     11       2.9138      2.00000
     12       2.9138      2.00000
     13       2.9138      2.00000
     14       5.7807      2.00000
     15       5.7807      2.00000
     16       5.7807      2.00000
     17       6.3735      0.00000
     18       6.3735      0.00000
     19       6.3735      0.00000
     20       6.3735      0.00000
     21       6.3735      0.00000
     22       6.3735      0.00000

 k-point     2 :       0.0833    0.0000    0.0000
  band No.  band energies     occupation 
      1      -6.1628      2.00000
      2      -2.6676      2.00000
      3      -2.0301      2.00000
      4      -2.0301      2.00000
      5      -2.0301      2.00000
      6      -2.0301      2.00000
      7      -1.3771      2.00000
      8       2.8214      2.00000
      9       2.8214      2.00000
     10       2.8214      2.00000
     11       2.8214      2.00000
     12       2.9412      2.00000
     13       2.9412      2.00000
     14       5.5799      2.00000
     15       5.6533      2.00000
     16       5.6533      2.00000
     17       6.2678      0.00000
     18       6.5425      0.00000
     19       6.5425      0.00000
     20       6.5425      0.00000
     21       6.5425      0.00000
     22       6.5621      0.00000

 k-point     3 :       0.1667    0.0000    0.0000
  band No.  band energies     occupation 
      1      -6.0716      2.00000
      2      -3.2535      2.00000
      3      -2.0013      2.00000
      4      -2.0013      2.00000
      5      -2.0013      2.00000
      6      -2.0013      2.00000
      7      -0.6834      2.00000
      8       2.5957      2.00000
      9       2.5957      2.00000
     10       2.5957      2.00000
     11       2.5957      2.00000
     12       3.0235      2.00000
     13       3.0235      2.00000
     14       5.0830      2.00000
     15       5.3447      2.00000
     16       5.3447      2.00000
     17       6.2407      0.00000
     18       6.8372      0.00000
     19       6.9988      0.00000
     20       6.9988      0.00000
     21       6.9988      0.00000
     22       6.9988      0.00000

 k-point     4 :       0.2500    0.0000    0.0000
  band No.  band energies     occupation 
      1      -5.9198      2.00000
      2      -3.7939      2.00000
      3      -1.9602      2.00000
      4      -1.9602      2.00000
      5      -1.9602      2.00000
      6      -1.9602      2.00000
      7       0.0341      2.00000
      8       2.3300      2.00000
      9       2.3300      2.00000
     10       2.3300      2.00000
     11       2.3300      2.00000
     12       3.1597      2.00000
     13       3.1597      2.00000
     14       4.4423      2.00000
     15       4.9650      2.00000
     16       4.9650      2.00000
     17       6.2875      0.00000
     18       7.2012      0.00000
     19       7.6526      0.00000
     20       7.6526      0.00000
     21       7.6526      0.00000
     22       7.6968      0.00000

 k-point     5 :       0.3333    0.0000    0.0000
  band No.  band energies     occupation 
      1      -5.7082      2.00000
      2      -4.2852      2.00000
      3      -1.9170      2.00000
      4      -1.9170      2.00000
      5      -1.9170      2.00000
      6      -1.9170      2.00000
      7       0.7688      2.00000
      8       2.0961      2.00000
      9       2.0961      2.00000
     10       2.0961      2.00000
     11       2.0961      2.00000
     12       3.3490      2.00000
     13       3.3490      2.00000
     14       3.7385      2.00000
     15       4.5768      2.00000
     16       4.5768      2.00000
     17       6.4033      0.00000
     18       7.4059      0.00000
     19       7.6549      0.00000
     20       8.4360      0.00000
     21       8.4360      0.00000
     22       8.4360      0.00000

 k-point     6 :       0.4167    0.0000    0.0000
  band No.  band energies     occupation 
      1      -5.4376      2.00000
      2      -4.7244      2.00000
      3      -1.8839      2.00000
      4      -1.8839      2.00000
      5      -1.8839      2.00000
      6      -1.8839      2.00000
      7       1.5136      2.00000
      8       1.9387      2.00000
      9       1.9387      2.00000
     10       1.9387      2.00000
     11       1.9387      2.00000
     12       3.0064      2.00000
     13       3.5893      2.00000
     14       3.5893      2.00000
     15       4.2095      2.00000
     16       4.2095      2.00000
     17       6.5822      0.00000
     18       7.0962      0.00000
     19       8.1939      0.00000
     20       9.2949      0.00000
     21       9.2949      0.00000
     22       9.2992      0.00000

 k-point     7 :       0.5000    0.0000    0.0000
  band No.  band energies     occupation 
      1      -5.1092      2.00000
      2      -5.1092      2.00000
      3      -1.8714      2.00000
      4      -1.8714      2.00000
      5      -1.8714      2.00000
      6      -1.8714      2.00000
      7       1.8833      2.00000
      8       1.8833      2.00000
      9       1.8833      2.00000
     10       1.8833      2.00000
     11       2.2618      2.00000
     12       2.2618      2.00000
     13       3.8776      2.00000
     14       3.8776      2.00000
     15       3.8776      2.00000
     16       3.8776      2.00000
     17       6.8165      0.00000
     18       6.8165      0.00000
     19       8.8047      0.00000
     20       8.8047      0.00000
     21       9.9513      0.00000
     22       9.9514      0.00000

 k-point     8 :       0.0833    0.0833    0.0000
  band No.  band energies     occupation 
      1      -6.1324      2.00000
      2      -2.6518      2.00000
      3      -2.6518      2.00000
      4      -2.0668      2.00000
      5      -1.9748      2.00000
      6      -1.3745      2.00000
      7      -1.3745      2.00000
      8       2.5457      2.00000
      9       2.8366      2.00000
     10       2.8366      2.00000
     11       2.8644      2.00000
     12       2.8644      2.00000
     13       2.9627      2.00000
     14       5.2293      2.00000
     15       5.5256      2.00000
     16       5.7538      2.00000
     17       6.4303      0.00000
     18       6.4438      0.00000
     19       6.4438      0.00000
     20       6.7224      0.00000
     21       6.7224      0.00000
     22       6.9435      0.00000

 k-point     9 :       0.1667    0.0833    0.0000
  band No.  band energies     occupation 
      1      -6.0413      2.00000
      2      -3.2337      2.00000
      3      -2.6058      2.00000
      4      -2.0910      2.00000
      5      -1.8990      2.00000
      6      -1.3693      2.00000
      7      -0.6916      2.00000
      8       2.2293      2.00000
      9       2.5806      2.00000
     10       2.6779      2.00000
     11       2.9092      2.00000
     12       2.9195      2.00000
     13       2.9661      2.00000
     14       4.7131      2.00000
     15       5.2160      2.00000
     16       5.5789      2.00000
     17       6.4220      0.00000
     18       6.6546      0.00000
     19       6.9142      0.00000
     20       6.9875      0.00000
     21       7.1609      0.00000
     22       7.5450      0.00000

 k-point    10 :       0.2500    0.0833    0.0000
  band No.  band energies     occupation 
      1      -5.8900      2.00000
      2      -3.7711      2.00000
      3      -2.5344      2.00000
      4      -2.1123      2.00000
      5      -1.8048      2.00000
      6      -1.3693      2.00000
      7       0.0108      2.00000
      8       1.9447      2.00000
      9       2.2742      2.00000
     10       2.4661      2.00000
     11       2.7436      2.00000
     12       3.0383      2.00000
     13       3.1266      2.00000
     14       4.1276      2.00000
     15       4.8347      2.00000
     16       5.2071      2.00000
     17       6.4728      0.00000
     18       7.1630      0.00000
     19       7.3408      0.00000
     20       7.5808      0.00000
     21       7.7976      0.00000
     22       7.8972      0.00000

 k-point    11 :       0.3333    0.0833    0.0000
  band No.  band energies     occupation 
      1      -5.6788      2.00000
      2      -4.2602      2.00000
      3      -2.4456      2.00000
      4      -2.1425      2.00000
      5      -1.6991      2.00000
      6      -1.3853      2.00000
      7       0.7239      2.00000
      8       1.7376      2.00000
      9       1.9898      2.00000
     10       2.2972      2.00000
     11       2.5275      2.00000
     12       3.2223      2.00000
     13       3.3460      2.00000
     14       3.4979      2.00000
     15       4.4451      2.00000
     16       4.7718      2.00000
     17       6.5909      0.00000
     18       7.5862      0.00000
     19       7.7830      0.00000
     20       7.8641      0.00000
     21       8.3741      0.00000
     22       8.5664      0.00000

 k-point    12 :       0.4167    0.0833    0.0000
  band No.  band energies     occupation 
      1      -5.4089      2.00000
      2      -4.6978      2.00000
      3      -2.3507      2.00000
      4      -2.1913      2.00000
      5      -1.5925      2.00000
      6      -1.4270      2.00000
      7       1.4385      2.00000
      8       1.6349      2.00000
      9       1.7715      2.00000
     10       2.2123      2.00000
     11       2.3414      2.00000
     12       2.8344      2.00000
     13       3.4592      2.00000
     14       3.6237      2.00000
     15       4.0771      2.00000
     16       4.3451      2.00000
     17       6.7704      0.00000
     18       7.2807      0.00000
     19       8.3102      0.00000
     20       8.6860      0.00000
     21       9.2546      0.00000
     22       9.4540      0.00000

 k-point    13 :       0.5000    0.0833    0.0000
  band No.  band energies     occupation 
      1      -5.0814      2.00000
      2      -5.0814      2.00000
      3      -2.2622      2.00000
      4      -2.2622      2.00000
      5      -1.4979      2.00000
      6      -1.4979      2.00000
      7       1.6476      2.00000
      8       1.6476      2.00000
      9       2.1451      2.00000
     10       2.1451      2.00000
     11       2.2285      2.00000
     12       2.2285      2.00000
     13       3.7458      2.00000
     14       3.7458      2.00000
     15       3.9583      2.00000
     16       3.9583      2.00000
     17       7.0038      0.00000
     18       7.0038      0.00000
     19       8.9077      0.00000
     20       8.9077      0.00000
     21       9.5277      0.00000
     22       9.5374      0.00000

 k-point    14 :       0.1667    0.1667    0.0000
  band No.  band energies     occupation 
      1      -5.9509      2.00000
      2      -3.1752      2.00000
      3      -3.1752      2.00000
      4      -2.1776      2.00000
      5      -1.7782      2.00000
      6      -0.7190      2.00000
      7      -0.7190      2.00000
      8       1.8935      2.00000
      9       2.6303      2.00000
     10       2.6303      2.00000
     11       2.8299      2.00000
     12       2.8299      2.00000
     13       3.1076      2.00000
     14       4.1820      2.00000
     15       4.9033      2.00000
     16       5.6639      2.00000
     17       6.5990      0.00000
     18       6.9029      0.00000
     19       6.9029      0.00000
     20       7.4045      0.00000
     21       7.4045      0.00000
     22       8.2290      0.00000

 k-point    15 :       0.2500    0.1667    0.0000
  band No.  band energies     occupation 
      1      -5.8005      2.00000
      2      -3.7036      2.00000
      3      -3.0816      2.00000
      4      -2.2722      2.00000
[...]
      3      -3.5148      2.00000
      4      -3.5148      2.00000
      5      -0.9945      2.00000
      6      -0.9945      2.00000
      7       0.0598      2.00000
      8       0.0598      2.00000
      9       2.6617      2.00000
     10       2.6617      2.00000
     11       3.8216      2.00000
     12       3.8216      2.00000
     13       3.9293      2.00000
     14       3.9293      2.00000
     15       4.4090      2.00000
     16       4.4090      2.00000
     17       8.0597      0.00000
     18       8.0599      0.00000
     19       8.3980      0.00000
     20       8.3988      0.00000
     21       9.0004      0.00000
     22       9.0292      0.00000

 k-point    72 :       0.4167    0.4167    0.2500
  band No.  band energies     occupation 
      1      -4.5217      2.00000
      2      -3.9498      2.00000
      3      -3.9498      2.00000
      4      -3.5758      2.00000
      5      -1.0105      2.00000
      6      -0.6037      2.00000
      7      -0.6037      2.00000
      8       0.0407      2.00000
      9       2.7623      2.00000
     10       3.1950      2.00000
     11       3.1950      2.00000
     12       3.9149      2.00000
     13       4.1816      2.00000
     14       4.2158      2.00000
     15       4.2158      2.00000
     16       4.7861      2.00000
     17       7.8793      0.00000
     18       7.9187      0.00000
     19       8.3136      0.00000
     20       8.3136      0.00000
     21       8.8994      0.00000
     22       8.9263      0.00000

 k-point    73 :       0.5000    0.4167    0.2500
  band No.  band energies     occupation 
      1      -4.2506      2.00000
      2      -4.2506      2.00000
      3      -3.7580      2.00000
      4      -3.7580      2.00000
      5      -0.8553      2.00000
      6      -0.8553      2.00000
      7      -0.3120      2.00000
      8      -0.3120      2.00000
      9       2.9924      2.00000
     10       2.9924      2.00000
     11       3.5779      2.00000
     12       3.5779      2.00000
     13       4.2696      2.00000
     14       4.2696      2.00000
     15       4.5615      2.00000
     16       4.5615      2.00000
     17       8.1152      0.00000
     18       8.1153      0.00000
     19       8.1446      0.00000
     20       8.1448      0.00000
     21       9.0378      0.00000
     22       9.1135      0.00000

 k-point    74 :       0.5000    0.5000    0.2500
  band No.  band energies     occupation 
      1      -4.0111      2.00000
      2      -4.0111      2.00000
      3      -4.0111      2.00000
      4      -4.0111      2.00000
      5      -0.6222      2.00000
      6      -0.6222      2.00000
      7      -0.6222      2.00000
      8      -0.6222      2.00000
      9       3.2967      2.00000
     10       3.2967      2.00000
     11       3.2967      2.00000
     12       3.2967      2.00000
     13       4.5114      2.00000
     14       4.5114      2.00000
     15       4.5114      2.00000
     16       4.5114      2.00000
     17       8.0663      0.00000
     18       8.0663      0.00000
     19       8.0665      0.00000
     20       8.0665      0.00000
     21       9.3249      0.00000
     22       9.3265      0.00000

 k-point    75 :       0.3333    0.3333    0.3333
  band No.  band energies     occupation 
      1      -4.8123      2.00000
      2      -3.6919      2.00000
      3      -3.6919      2.00000
      4      -3.6919      2.00000
      5      -0.8488      2.00000
      6      -0.8488      2.00000
      7      -0.8488      2.00000
      8       0.4225      2.00000
      9       2.9783      2.00000
     10       2.9783      2.00000
     11       2.9783      2.00000
     12       3.9957      2.00000
     13       3.9957      2.00000
     14       3.9957      2.00000
     15       4.7774      2.00000
     16       4.7774      2.00000
     17       7.4653      0.00000
     18       7.7309      0.00000
     19       7.7309      0.00000
     20       7.7309      0.00000
     21       9.2295      0.00000
     22       9.2369      0.00000

 k-point    76 :       0.4167    0.3333    0.3333
  band No.  band energies     occupation 
      1      -4.5804      2.00000
      2      -4.0066      2.00000
      3      -3.6311      2.00000
      4      -3.6311      2.00000
      5      -1.0387      2.00000
      6      -1.0387      2.00000
      7      -0.6314      2.00000
      8       0.0127      2.00000
      9       3.1116      2.00000
     10       3.1116      2.00000
     11       3.6046      2.00000
     12       4.0956      2.00000
     13       4.0956      2.00000
     14       4.1705      2.00000
     15       4.5751      2.00000
     16       4.6386      2.00000
     17       7.5669      0.00000
     18       7.8917      0.00000
     19       7.9889      0.00000
     20       7.9890      0.00000
     21       9.0610      0.00000
     22       9.2516      0.00000

 k-point    77 :       0.5000    0.3333    0.3333
  band No.  band energies     occupation 
      1      -4.3083      2.00000
      2      -4.3083      2.00000
      3      -3.6074      2.00000
      4      -3.6074      2.00000
      5      -1.1067      2.00000
      6      -1.1067      2.00000
      7      -0.3413      2.00000
      8      -0.3413      2.00000
      9       3.1598      2.00000
     10       3.1598      2.00000
     11       4.1234      2.00000
     12       4.1234      2.00000
     13       4.1918      2.00000
     14       4.1918      2.00000
     15       4.3677      2.00000
     16       4.3677      2.00000
     17       7.8363      0.00000
     18       7.8363      0.00000
     19       8.2941      0.00000
     20       8.2945      0.00000
     21       8.8111      0.00000
     22       8.8329      0.00000

 k-point    78 :       0.4167    0.4167    0.3333
  band No.  band energies     occupation 
      1      -4.3686      2.00000
      2      -3.8738      2.00000
      3      -3.8738      2.00000
      4      -3.6675      2.00000
      5      -1.1320      2.00000
      6      -0.9108      2.00000
      7      -0.9108      2.00000
      8      -0.3683      2.00000
      9       3.3867      2.00000
     10       3.6702      2.00000
     11       3.6702      2.00000
     12       4.2839      2.00000
     13       4.2973      2.00000
     14       4.2973      2.00000
     15       4.3992      2.00000
     16       4.7203      2.00000
     17       7.5071      0.00000
     18       7.9239      0.00000
     19       7.9830      0.00000
     20       7.9830      0.00000
     21       8.9510      0.00000
     22       8.9615      0.00000

 k-point    79 :       0.5000    0.4167    0.3333
  band No.  band energies     occupation 
      1      -4.1277      2.00000
      2      -4.1277      2.00000
      3      -3.7528      2.00000
      4      -3.7528      2.00000
      5      -1.0864      2.00000
      6      -1.0864      2.00000
      7      -0.6814      2.00000
      8      -0.6814      2.00000
      9       3.5781      2.00000
     10       3.5781      2.00000
     11       4.1092      2.00000
     12       4.1092      2.00000
     13       4.3582      2.00000
     14       4.3582      2.00000
     15       4.5448      2.00000
     16       4.5448      2.00000
     17       7.7291      0.00000
     18       7.7291      0.00000
     19       8.0009      0.00000
     20       8.0009      0.00000
     21       8.9495      0.00000
     22       8.9566      0.00000

 k-point    80 :       0.5000    0.5000    0.3333
  band No.  band energies     occupation 
      1      -3.9348      2.00000
      2      -3.9348      2.00000
      3      -3.9348      2.00000
      4      -3.9348      2.00000
      5      -0.9375      2.00000
      6      -0.9375      2.00000
      7      -0.9375      2.00000
      8      -0.9375      2.00000
      9       3.8890      2.00000
     10       3.8890      2.00000
     11       3.8890      2.00000
     12       3.8890      2.00000
     13       4.5451      2.00000
     14       4.5451      2.00000
     15       4.5451      2.00000
     16       4.5451      2.00000
     17       7.7841      0.00000
     18       7.7841      0.00000
     19       7.7842      0.00000
     20       7.7842      0.00000
     21       9.0871      0.00000
     22       9.0931      0.00000

 k-point    81 :       0.4167    0.4167    0.4167
  band No.  band energies     occupation 
      1      -4.1875      2.00000
      2      -3.8124      2.00000
      3      -3.8124      2.00000
      4      -3.8124      2.00000
      5      -1.1170      2.00000
      6      -1.1170      2.00000
      7      -1.1170      2.00000
      8      -0.7126      2.00000
      9       3.9857      2.00000
     10       3.9857      2.00000
     11       3.9857      2.00000
     12       4.4003      2.00000
     13       4.4003      2.00000
     14       4.4003      2.00000
     15       4.6297      2.00000
     16       4.6297      2.00000
     17       7.2958      0.00000
     18       7.7562      0.00000
     19       7.7562      0.00000
     20       7.7562      0.00000
     21       8.9723      0.00000
     22       8.9734      0.00000

 k-point    82 :       0.5000    0.4167    0.4167
  band No.  band energies     occupation 
      1      -3.9944      2.00000
      2      -3.9944      2.00000
      3      -3.7884      2.00000
      4      -3.7884      2.00000
      5      -1.1900      2.00000
      6      -1.1900      2.00000
      7      -0.9700      2.00000
      8      -0.9700      2.00000
      9       4.0813      2.00000
     10       4.0813      2.00000
     11       4.4580      2.00000
     12       4.4580      2.00000
     13       4.4642      2.00000
     14       4.4642      2.00000
     15       4.5196      2.00000
     16       4.5196      2.00000
     17       7.4354      0.00000
     18       7.4354      0.00000
     19       7.6741      0.00000
     20       7.6741      0.00000
     21       8.9620      0.00000
     22       8.9802      0.00000

 k-point    83 :       0.5000    0.5000    0.4167
  band No.  band energies     occupation 
      1      -3.8732      2.00000
      2      -3.8732      2.00000
      3      -3.8732      2.00000
      4      -3.8732      2.00000
      5      -1.1481      2.00000
      6      -1.1481      2.00000
      7      -1.1481      2.00000
      8      -1.1481      2.00000
      9       4.3754      2.00000
     10       4.3754      2.00000
     11       4.3754      2.00000
     12       4.3754      2.00000
     13       4.5706      2.00000
     14       4.5706      2.00000
     15       4.5706      2.00000
     16       4.5706      2.00000
     17       7.4149      0.00000
     18       7.4149      0.00000
     19       7.4149      0.00000
     20       7.4149      0.00000
     21       9.0484      0.00000
     22       9.0545      0.00000

 k-point    84 :       0.5000    0.5000    0.5000
  band No.  band energies     occupation 
      1      -3.8492      2.00000
      2      -3.8492      2.00000
      3      -3.8492      2.00000
      4      -3.8492      2.00000
      5      -1.2225      2.00000
      6      -1.2225      2.00000
      7      -1.2225      2.00000
      8      -1.2225      2.00000
      9       4.5802      2.00000
     10       4.5802      2.00000
     11       4.5802      2.00000
     12       4.5802      2.00000
     13       4.5802      2.00000
     14       4.5802      2.00000
     15       4.5802      2.00000
     16       4.5802      2.00000
     17       7.2385      0.00000
     18       7.2385      0.00000
     19       7.2385      0.00000
     20       7.2385      0.00000
     21       9.0535      0.00000
     22       9.0535      0.00000


--------------------------------------------------------------------------------------------------------


 soft charge-density along one line, spin component           1
         0         1         2         3         4         5         6         7         8         9
 total charge-density along one line

 pseudopotential strength for first ion, spin component:           1
 18.611  -0.002   0.000   0.000  -0.000  -0.000  -0.000   0.000
 -0.002   0.006  -0.000  -0.000   0.000   0.000   0.000  -0.000
  0.000  -0.000   4.236  -0.000  -0.000  -0.005   0.000   0.000
  0.000  -0.000  -0.000   4.236   0.000   0.000  -0.005  -0.000
 -0.000   0.000  -0.000   0.000   4.236   0.000  -0.000  -0.005
 -0.000   0.000  -0.005   0.000   0.000   0.005  -0.000  -0.000
 -0.000   0.000   0.000  -0.005  -0.000  -0.000   0.005   0.000
  0.000  -0.000   0.000  -0.000  -0.005  -0.000   0.000   0.005
 total augmentation occupancy for first ion, spin component:           1
  1.484  -0.885  -0.000  -0.000  -0.000   0.000   0.000   0.000
 -0.885   0.896   0.000  -0.000  -0.000  -0.000  -0.000   0.000
 -0.000   0.000   1.018  -0.000   0.000  -0.581  -0.000   0.000
  0.000   0.000  -0.000   1.018   0.000   0.000  -0.581   0.000
 -0.000   0.000   0.000   0.000   1.018   0.000  -0.000  -0.581
  0.000   0.000  -0.581   0.000  -0.000   0.387   0.000   0.000
  0.000  -0.000  -0.000  -0.581  -0.000   0.000   0.387   0.000
  0.000   0.000  -0.000   0.000  -0.581   0.000  -0.000   0.387


------------------------ aborting loop because EDIFF is reached ----------------------------------------


    CHARGE:  cpu time    0.12: real time    0.12
    FORLOC:  cpu time    0.00: real time    0.00
    FORNL :  cpu time    0.18: real time    0.18
    STRESS:  cpu time    0.29: real time    0.29
    FORCOR:  cpu time    0.01: real time    0.01
    FORHAR:  cpu time    0.00: real time    0.00
    MIXING:  cpu time    0.00: real time    0.00
    OFIELD:  cpu time    0.00: real time    0.00

  FORCE on cell =-STRESS in cart. coord.  units (eV):
  Direction    XX          YY          ZZ          XY          YZ          ZX
  --------------------------------------------------------------------------------------
  Alpha Z    12.94008    12.94008    12.94008
  Ewald    -304.50215  -304.50215  -304.50215    -0.00000    -0.00000    -0.00000
  Hartree    19.51652    19.51652    19.51652    -0.00000    -0.00000    -0.00000
  E(xc)    -102.20921  -102.20921  -102.20921     0.00000     0.00000    -0.00000
  Local    -116.97136  -116.97136  -116.97136     0.00000     0.00000    -0.00000
  n-local   311.73041   315.22804   308.36907    -2.89853    -2.39443    -1.43359
  augment   -46.49367   -46.49367   -46.49367     0.00000     0.00000     0.00000
  Kinetic   218.30092   230.56286   228.96648    -3.54056    -5.42967    -2.36960
  Fock        0.00000     0.00000     0.00000     0.00000     0.00000     0.00000
  -------------------------------------------------------------------------------------
  Total      -0.00053    -0.00053    -0.00053     0.00000    -0.00000    -0.00000
  in kB      -0.00525    -0.00525    -0.00525     0.00000    -0.00000    -0.00000
  external pressure =       -0.01 kB  Pullay stress =        0.00 kB


 VOLUME and BASIS-vectors are now :
 -----------------------------------------------------------------------------
  energy-cutoff  :      400.00
  volume of cell :      160.50
      direct lattice vectors                 reciprocal lattice vectors
     5.434453573  0.000000000 -0.000000000     0.184011141  0.000000000  0.000000000
    -0.000000000  5.434453573  0.000000000     0.000000000  0.184011141  0.000000000
    -0.000000000 -0.000000000  5.434453573     0.000000000  0.000000000  0.184011141

  length of vectors
     5.434453573  5.434453573  5.434453573     0.184011141  0.184011141  0.184011141


 FORCES acting on ions
    electron-ion (+dipol)            ewald-force                    non-local-force                 convergence-correction
 -----------------------------------------------------------------------------------------------
   0.118E-13 0.732E-15 -.101E-13   0.711E-14 0.000E+00 -.355E-14   0.607E-17 -.108E-16 0.338E-16   0.117E-15 0.557E-15 0.429E-14
   -.275E-13 0.439E-13 -.105E-12   0.141E-13 0.108E-13 -.107E-13   -.269E-16 0.130E-16 -.252E-16   0.331E-15 0.109E-14 -.224E-14
   0.850E-14 -.127E-13 -.261E-13   -.711E-14 -.355E-14 0.000E+00   0.182E-16 0.178E-16 -.208E-16   0.356E-15 -.185E-14 0.443E-15
   -.235E-13 0.241E-12 -.215E-12   -.181E-15 0.711E-14 -.709E-14   -.130E-16 0.121E-16 0.243E-16   0.560E-15 -.101E-15 0.483E-14
   -.105E-13 -.468E-15 0.324E-12   -.355E-14 -.711E-14 0.711E-14   0.182E-16 0.178E-16 -.173E-17   0.142E-14 0.188E-15 0.153E-15
   -.229E-13 0.380E-13 -.254E-13   0.353E-14 0.399E-14 0.112E-16   -.781E-17 -.156E-16 0.694E-17   0.161E-14 0.962E-15 0.428E-14
   -.196E-14 0.127E-12 0.159E-12   -.107E-13 -.107E-13 0.107E-13   0.217E-16 0.152E-16 0.269E-16   0.141E-14 -.232E-14 0.453E-14
   -.216E-13 0.119E-12 -.120E-13   -.360E-14 0.415E-16 0.359E-14   -.321E-16 -.147E-16 -.182E-16   0.193E-14 0.741E-17 -.255E-14
 -----------------------------------------------------------------------------------------------
   -.876E-13 0.557E-12 0.896E-13   -.394E-15 0.598E-15 0.625E-16   -.156E-16 0.347E-16 0.260E-16   0.773E-14 -.147E-14 0.137E-13


 POSITION                                       TOTAL-FORCE (eV/Angst)
 -----------------------------------------------------------------------------------
      0.00000      0.00000      0.00000         0.000000      0.000000     -0.000000
      4.07584      4.07584      1.35861        -0.000000      0.000000      0.000000
      0.00000      2.71723      2.71723         0.000000      0.000000      0.000000
      4.07584      1.35861      4.07584        -0.000000     -0.000000     -0.000000
      2.71723      0.00000      2.71723        -0.000000      0.000000      0.000000
      1.35861      4.07584      4.07584        -0.000000     -0.000000     -0.000000
      2.71723      2.71723      0.00000         0.000000     -0.000000     -0.000000
      1.35861      1.35861      1.35861        -0.000000     -0.000000      0.000000
 -----------------------------------------------------------------------------------
    total drift:                               -0.000000      0.000000      0.000000


--------------------------------------------------------------------------------------------------------



  FREE ENERGIE OF THE ION-ELECTRON SYSTEM (eV)
  ---------------------------------------------------
  free  energy   TOTEN  =       -41.85985105 eV

  energy  without entropy=      -41.85985105  energy(sigma->0) =      -41.85985105



--------------------------------------------------------------------------------------------------------


    POTLOK:  cpu time    0.02: real time    0.02


--------------------------------------------------------------------------------------------------------




--------------------------------------------------------------------------------------------------------


  
 reached required accuracy - stopping structural energy minimisation
     LOOP+:  cpu time   19.57: real time   19.73
    4ORBIT:  cpu time    0.00: real time    0.00
 BZINTS: Fermi energy:  5.812373; 32.000000 electrons
         Band energy:  22.438370;  BLOECHL correction:  0.000000

 total amount of memory used by VASP on root node    36724. kBytes
========================================================================

   base      :      30000. kBytes
   nonl-proj :       1364. kBytes
   fftplans  :        656. kBytes
   grid      :        917. kBytes
   one-center:          3. kBytes
   wavefun   :       3784. kBytes

  
  
 General timing and accounting informations for this job:
 ========================================================
  
                  Total CPU time used (sec):       20.541
                            User time (sec):       20.389
                          System time (sec):        0.152
                         Elapsed time (sec):       21.757
  
                   Maximum memory used (kb):       25328.
                   Average memory used (kb):           0.
  
                          Minor page faults:         6541
                          Major page faults:            0
                 Voluntary context switches:          632
